LAMMPS data file for a single molecule of Webb hexane 

          20  atoms
          19  bonds
          36  angles
          45  dihedrals

           5  atom types
           6  bond types
          10  angle types
           9  dihedral types

 -34.1838875899413139  34.1838875899413068 xlo xhi
 -34.1838875899413139  34.1838875899413068 ylo yhi
 -34.1838875899413139  34.1838875899413068 zlo zhi

Masses

  1  1.007940
  2  1.007940
  3  12.011000
  4  12.011000
  5  12.011000


Atoms

1         0    3   -0.1049480000000000   9.3842749510326140  -23.7397068226084897 -20.5103897330386289 0 0 0
2         0    4    0.0387310000000000   10.4324466675571212 -22.8002626334639800 -21.0996686082417710 0 0 0
3         0    1    0.0241950000000000   9.0879975493519201  -23.3813371135251025 -19.5020501975820331 0 0 0
4         0    1    0.0241950000000000   9.7960943246800536  -24.7671173029702167 -20.4158544500406052 0 0 0
5         0    1    0.0241950000000000   8.4818752797500530  -23.7661667745631533 -21.1577522055466360 0 0 0
6         0    2   -0.0031840000000000   11.3135921844976615 -22.7758635836572978 -20.4218943648951239 0 0 0
7         0    2   -0.0031840000000000   10.0020234148517968 -21.7769314988490024 -21.1622958495844742 0 0 0
8         0    5    0.0063680000000000   10.8681189644546254 -23.2624018800240009 -22.4949488617410402 0 0 0
9         0    2   -0.0031840000000000   11.2940880180712604 -24.2878050133625116 -22.4253477884697681 0 0 0
10        0    5    0.0063680000000000   11.9211386614886692 -22.3161131429243511 -23.0835690653500230 0 0 0
11        0    2   -0.0031840000000000   9.9814083041056669  -23.2880266797867712 -23.1663762227121524 0 0 0
12        0    2   -0.0031840000000000   12.8078493218376277 -22.2904883431615843 -22.4121417043789144 0 0 0
13        0    2   -0.0031840000000000   11.4951768765462212 -21.2907157156963436 -23.1531663167528414 0 0 0
14        0    4    0.0387310000000000   12.3568109583861734 -22.7782523894843756 -24.4788493188492957 0 0 0
15        0    2   -0.0031840000000000   12.7872273472522995 -23.8015897482789782 -24.4162183162170017 0 0 0
16        0    3   -0.1049480000000000   13.4049826749106789 -21.8388082003398623 -25.0681281940524343 0 0 0
17        0    2   -0.0031840000000000   11.4756654414456332 -22.8026514392910542 -25.1566235621959393 0 0 0
18        0    1    0.0241950000000000   14.3073823461932417 -21.8123482483852023 -24.4207657215444307 0 0 0
19        0    1    0.0241950000000000   12.9931705699374263 -20.8114034260886385 -25.1626596551820079 0 0 0
20        0    1    0.0241950000000000   13.7012600765913728 -22.1971779094232495 -26.0764677295090337 0 0 0


Bonds

1        4        1        2       
2        1        3        1       
3        1        4        1       
4        1        5        1       
5        2        6        2       
6        2        7        2       
7        5        2        8       
8        3        9        8       
9        6        8        10      
10       3        11       8       
11       3        12       10      
12       3        13       10      
13       5        14       10      
14       2        15       14      
15       4        16       14      
16       2        17       14      
17       1        18       16      
18       1        19       16      
19       1        20       16      
    

Angles

1        2        3        1        2       
2        2        4        1        2       
3        2        5        1        2       
4        4        6        2        1       
5        4        7        2        1       
6        9        1        2        8       
7        1        3        1        4       
8        1        3        1        5       
9        1        4        1        5       
10       3        6        2        7       
11       5        6        2        8       
12       5        7        2        8       
13       7        9        8        2       
14       10       2        8        10      
15       7        11       8        2       
16       8        9        8        10      
17       6        9        8        11      
18       8        11       8        10      
19       8        12       10       8       
20       8        13       10       8       
21       10       14       10       8       
22       6        12       10       13      
23       7        12       10       14      
24       7        13       10       14      
25       5        15       14       10      
26       9        16       14       10      
27       5        17       14       10      
28       4        15       14       16      
29       3        15       14       17      
30       2        18       16       14      
31       2        19       16       14      
32       2        20       16       14      
33       4        17       14       16      
34       1        18       16       19      
35       1        18       16       20      
36       1        19       16       20 


     
Dihedrals

1        1        3        1        2        6       
2        1        3        1        2        7       
3        2        3        1        2        8       
4        1        4        1        2        6       
5        1        4        1        2        7       
6        2        4        1        2        8       
7        1        5        1        2        6       
8        1        5        1        2        7       
9        2        5        1        2        8       
10       5        9        8        2        1       
11       8        1        2        8        10      
12       5        11       8        2        1       
13       3        6        2        8        9       
14       4        6        2        8        10      
15       3        6        2        8        11      
16       3        7        2        8        9       
17       4        7        2        8        10      
18       3        7        2        8        11      
19       7        12       10       8        2       
20       7        13       10       8        2       
21       9        2        8        10       14      
22       6        9        8        10       12      
23       6        9        8        10       13      
24       7        9        8        10       14      
25       6        11       8        10       12      
26       6        11       8        10       13      
27       7        11       8        10       14      
28       4        15       14       10       8       
29       8        16       14       10       8       
30       4        17       14       10       8       
31       3        15       14       10       12      
32       5        12       10       14       16      
33       3        17       14       10       12      
34       3        15       14       10       13      
35       5        13       10       14       16      
36       3        17       14       10       13      
37       2        18       16       14       10      
38       2        19       16       14       10      
39       2        20       16       14       10      
40       1        18       16       14       15      
41       1        19       16       14       15      
42       1        20       16       14       15      
43       1        18       16       14       17      
44       1        19       16       14       17      
45       1        20       16       14       17 



         
