LAMMPS input file for 500 Webb hexane molecules on a lattice

          10000 atoms
          9500 bonds
          18000 angles
          22500 dihedrals

          5 atom types
          6 bond types
          10 angle types
          9 dihedral types

-10.0 80.0  xlo xhi
-10.0 80.0  ylo yhi
-10.0 80.0  zlo zhi

Masses

  1 1.007940
  2 1.007940
  3 12.011000
  4 12.011000
  5 12.011000

Atoms

     1    1    3    -0.1049480000000000    17.2482404688    18.3991625225    10.0570756801    0    0    0
     2    1    4    0.0387310000000000    18.7681824355    18.496044254    9.96295197212    0    0    0
     3    1    1    0.0241950000000000    16.9383811024    17.3348005434    9.99321241714    0    0    0
     4    1    1    0.0241950000000000    16.7732629727    18.9584872247    9.22301533038    0    0    0
     5    1    1    0.0241950000000000    16.8939298158    18.8152832281    11.0242421529    0    0    0
     6    1    2    -0.0031840000000000    19.0965556454    18.0533533432    8.99724681366    0    0    0
     7    1    2    -0.0031840000000000    19.2169791571    17.9104379633    10.7948412279    0    0    0
     8    1    5    0.0063680000000000    19.2362768583    19.9534169859    10.0474644038    0    0    0
     9    1    2    -0.0031840000000000    18.7807061596    20.5338900245    9.21484689275    0    0    0
     10    1    5    0.0063680000000000    20.7637242746    20.0465828421    9.95253751629    0    0    0
     11    1    2    -0.0031840000000000    18.9012316837    20.3908533638    11.0139638983    0    0    0
     12    1    2    -0.0031840000000000    21.0987694492    19.6091464642    8.98603802178    0    0    0
     13    1    2    -0.0031840000000000    21.2192942922    19.4661109205    10.7851451133    0    0    0
     14    1    4    0.0387310000000000    21.2318186974    21.503955574    10.037049948    0    0    0
     15    1    2    -0.0031840000000000    20.7830120088    22.0895613505    9.20516131905    0    0    0
     16    1    3    -0.1049480000000000    22.7517606641    21.6008373055    9.94292623999    0    0    0
     17    1    2    -0.0031840000000000    20.9034454875    21.9466464849    11.0027551065    0    0    0
     18    1    1    0.0241950000000000    23.1060713171    21.1847165999    8.97575976718    0    0    0
     19    1    1    0.0241950000000000    23.2267374791    21.0415137203    10.7769766757    0    0    0
     20    1    1    0.0241950000000000    23.0616200305    22.6651992847    10.006789503    0    0    0
     21    2    3    -0.1049480000000000    59.2198133993    29.8522041444    43.0834370487    0    0    0
     22    2    4    0.0387310000000000    58.8933968492    29.8627174632    41.5928631222    0    0    0
     23    2    1    0.0241950000000000    58.281536076    29.7556993444    43.6693382811    0    0    0
     24    2    1    0.0241950000000000    59.7253265993    30.7975697395    43.3747181979    0    0    0
     25    2    1    0.0241950000000000    59.8815299059    28.993994231    43.32779432    0    0    0
     26    2    2    -0.0031840000000000    58.2136127629    30.7166912186    41.3807002562    0    0    0
     27    2    2    -0.0031840000000000    58.3695008992    28.9167528252    41.3338710447    0    0    0
     28    2    5    0.0063680000000000    60.1660318364    29.9949033998    40.7484005198    0    0    0
     29    2    2    -0.0031840000000000    60.6867210293    30.9411577233    41.0152919764    0    0    0
     30    2    5    0.0063680000000000    59.8339680467    30.0050946093    39.251598469    0    0    0
     31    2    2    -0.0031840000000000    60.8427409849    29.1396947137    40.9684231506    0    0    0
     32    2    2    -0.0031840000000000    59.1572588981    30.8603032954    39.0315758381    0    0    0
     33    2    2    -0.0031840000000000    59.3132783101    29.0588502693    38.9847071977    0    0    0
     34    2    4    0.0387310000000000    61.1066030339    30.1372805459    38.4071358665    0    0    0
     35    2    2    -0.0031840000000000    61.6305012408    31.0832451259    38.6661376858    0    0    0
     36    2    3    -0.1049480000000000    60.7801864837    30.1477938647    36.91656194    0    0    0
     37    2    2    -0.0031840000000000    61.7863871202    29.2833067905    38.6192987325    0    0    0
     38    2    1    0.0241950000000000    60.1184699771    31.0060037781    36.6722046688    0    0    0
     39    2    1    0.0241950000000000    60.2746727401    29.2024382531    36.6252809763    0    0    0
     40    2    1    0.0241950000000000    61.718463807    30.2442986647    36.3306607077    0    0    0
     41    3    3    -0.1049480000000000    56.9241580506    39.4010519404    40.5644256413    0    0    0
     42    3    4    0.0387310000000000    58.414843309    39.2833550959    40.8685207544    0    0    0
     43    3    1    0.0241950000000000    56.343947773    38.8299616329    41.3195214368    0    0    0
     44    3    1    0.0241950000000000    56.7015949176    38.9874981851    39.5576767378    0    0    0
     45    3    1    0.0241950000000000    56.6053978267    40.4646135744    40.6009227224    0    0    0
     46    3    2    -0.0031840000000000    58.701398339    38.2091932339    40.8472329749    0    0    0
     47    3    2    -0.0031840000000000    58.6053952036    39.6833297408    41.8883752626    0    0    0
     48    3    5    0.0063680000000000    59.2515317951    40.0603365771    39.845563192    0    0    0
     49    3    2    -0.0031840000000000    59.0531669336    39.6575397721    38.8276478489    0    0    0
     50    3    5    0.0063680000000000    60.7484690587    39.9396649317    40.1544382203    0    0    0
     51    3    2    -0.0031840000000000    58.957082431    41.1329247808    39.8696721926    0    0    0
     52    3    2    -0.0031840000000000    61.0429184228    38.8670767281    40.1303292197    0    0    0
     53    3    2    -0.0031840000000000    60.9468345229    40.3424537723    41.1723475463    0    0    0
     54    3    4    0.0387310000000000    61.5851575448    40.7166464129    39.1314806579    0    0    0
     55    3    2    -0.0031840000000000    61.3945959069    40.3166726088    38.1116240609    0    0    0
     56    3    3    -0.1049480000000000    63.0758428032    40.5989495684    39.435575771    0    0    0
     57    3    2    -0.0031840000000000    61.2986025148    41.7908082749    39.1527684374    0    0    0
     58    3    1    0.0241950000000000    63.394603027    39.5353879344    39.3990786899    0    0    0
     59    3    1    0.0241950000000000    63.2984065389    41.0124953593    40.4423186574    0    0    0
     60    3    1    0.0241950000000000    63.6560530808    41.1700398759    38.6804799755    0    0    0
     61    4    3    -0.1049480000000000    0.240472324002    23.1631726237    49.7268136265    0    0    0
     62    4    4    0.0387310000000000    -0.479821397521    21.8797651224    50.1299402382    0    0    0
     63    4    1    0.0241950000000000    -0.392110832679    24.0401317119    49.979279611    0    0    0
     64    4    1    0.0241950000000000    0.43627624509    23.1689319975    48.6333182834    0    0    0
     65    4    1    0.0241950000000000    1.20491961168    23.2519319573    50.2709337204    0    0    0
     66    4    2    -0.0031840000000000    -1.44962214923    21.8276807785    49.5884936723    0    0    0
     67    4    2    -0.0031840000000000    -0.682528978183    21.9105134534    51.2228067148    0    0    0
     68    4    5    0.0063680000000000    0.363491444005    20.6436369475    49.7967727038    0    0    0
     69    4    2    -0.0031840000000000    0.565502326972    20.6213369804    48.7029537771    0    0    0
     70    4    5    0.0063680000000000    -0.363491127265    19.3563623457    50.2032293938    0    0    0
     71    4    2    -0.0031840000000000    1.33324507082    20.7042399424    50.3386512021    0    0    0
     72    4    2    -0.0031840000000000    -1.33324475408    19.2957593508    49.6613508955    0    0    0
     73    4    2    -0.0031840000000000    -0.56550600077    19.3786616746    51.2970391735    0    0    0
     74    4    4    0.0387310000000000    0.479821714261    18.1202341708    49.8700618595    0    0    0
     75    4    2    -0.0031840000000000    0.682534108598    18.0894941845    48.7771927005    0    0    0
     76    4    3    -0.1049480000000000    -0.240472007262    16.8368266695    50.2731884711    0    0    0
     77    4    2    -0.0031840000000000    1.44962246597    18.1723185147    50.4115084254    0    0    0
     78    4    1    0.0241950000000000    -1.20491929494    16.7480673359    49.7290683772    0    0    0
     79    4    1    0.0241950000000000    -0.436279918887    16.8310666574    51.3666746672    0    0    0
     80    4    1    0.0241950000000000    0.392111149419    15.9598675813    50.0207224866    0    0    0
     81    5    3    -0.1049480000000000    42.1928256177    38.012159169    41.1739350159    0    0    0
     82    5    4    0.0387310000000000    41.1788536182    39.1466138206    41.2894441167    0    0    0
     83    5    1    0.0241950000000000    42.6612266534    37.8292665247    42.1639393171    0    0    0
     84    5    1    0.0241950000000000    42.9896812505    38.2789594571    40.4473380726    0    0    0
     85    5    1    0.0241950000000000    41.6915956895    37.078771955    40.8397788632    0    0    0
     86    5    2    -0.0031840000000000    41.7023627515    40.0604876091    41.646044098    0    0    0
     87    5    2    -0.0031840000000000    40.4068949765    38.8627204458    42.0376936514    0    0    0
     88    5    5    0.0063680000000000    40.5089613848    39.4298725425    39.9399260874    0    0    0
     89    5    2    -0.0031840000000000    41.2871504632    39.7094791359    39.1956227614    0    0    0
     90    5    5    0.0063680000000000    39.4910365349    40.5701268825    40.0600744971    0    0    0
     91    5    2    -0.0031840000000000    39.9905854428    38.5106974505    39.5876042748    0    0    0
     92    5    2    -0.0031840000000000    40.0094124769    41.4893019745    40.4123963097    0    0    0
     93    5    2    -0.0031840000000000    38.7128545487    40.2905268865    40.8043753382    0    0    0
     94    5    4    0.0387310000000000    38.8211443015    40.8533856044    38.7105564678    0    0    0
     95    5    2    -0.0031840000000000    39.593109562    41.1372715344    37.9623060581    0    0    0
     96    5    3    -0.1049480000000000    37.807172302    41.987840256    38.8260655686    0    0    0
     97    5    2    -0.0031840000000000    38.2976351682    39.9395118159    38.3539564865    0    0    0
     98    5    1    0.0241950000000000    38.3084022302    42.92122747    39.1602217213    0    0    0
     99    5    1    0.0241950000000000    37.0103237614    41.7210465653    39.552660027    0    0    0
     100    5    1    0.0241950000000000    37.3387712663    42.1707329003    37.8360612674    0    0    0
     101    6    3    -0.1049480000000000    12.1581932461    62.25897609    29.3857136519    0    0    0
     102    6    4    0.0387310000000000    11.1588732685    61.5353262026    30.2835774207    0    0    0
     103    6    1    0.0241950000000000    12.6176672754    63.1018539347    29.9437444048    0    0    0
     104    6    1    0.0241950000000000    11.6466014368    62.6644627446    28.4868483645    0    0    0
     105    6    1    0.0241950000000000    12.9632590054    61.5638207207    29.0651959419    0    0    0
     106    6    2    -0.0031840000000000    10.3783315972    62.2582632823    30.6068533693    0    0    0
     107    6    2    -0.0031840000000000    11.6923340017    61.1598409484    31.184034765    0    0    0
     108    6    5    0.0063680000000000    10.5016161129    60.3622132865    29.5473647226    0    0    0
     109    6    2    -0.0031840000000000    9.97318242463    60.7445393677    28.646071133    0    0    0
     110    6    5    0.0063680000000000    9.49838470217    59.6377850743    30.4526365614    0    0    0
     111    6    2    -0.0031840000000000    11.288297873    59.645186788    29.2237415849    0    0    0
     112    6    2    -0.0031840000000000    8.71170294205    60.3548115728    30.7762596991    0    0    0
     113    6    2    -0.0031840000000000    10.0268110535    59.2554648567    31.3539267178    0    0    0
     114    6    4    0.0387310000000000    8.84112754659    58.4646721582    29.7164238633    0    0    0
     115    6    2    -0.0031840000000000    8.30767333679    58.8401620772    28.8159605454    0    0    0
     116    6    3    -0.1049480000000000    7.8418075689    57.7410222708    30.6142876321    0    0    0
     117    6    2    -0.0031840000000000    9.62166921784    57.7417350785    29.3931479147    0    0    0
     118    6    1    0.0241950000000000    7.03674180966    58.4361776401    30.9348053421    0    0    0
     119    6    1    0.0241950000000000    8.35339204129    57.3355414798    31.5131494863    0    0    0
     120    6    1    0.0241950000000000    7.38233353961    56.8981444261    30.0562568792    0    0    0
     121    7    3    -0.1049480000000000    39.2381581744    7.15491441685    -1.20962962832    0    0    0
     122    7    4    0.0387310000000000    38.9036450144    8.55052019858    -0.691117938626    0    0    0
     123    7    1    0.0241950000000000    38.3042329499    6.63704681742    -1.51385748762    0    0    0
     124    7    1    0.0241950000000000    39.7341282479    6.55664119555    -0.41578628717    0    0    0
     125    7    1    0.0241950000000000    39.9111759896    7.22144981858    -2.09094882552    0    0    0
     126    7    2    -0.0031840000000000    38.2127835005    8.45519562903    0.174915695659    0    0    0
     127    7    2    -0.0031840000000000    38.3894740369    9.11866355303    -1.4968687026    0    0    0
     128    7    5    0.0063680000000000    40.1700947458    9.29922146247    -0.260140544297    0    0    0
     129    7    2    -0.0031840000000000    40.6810982413    8.72355817019    0.543123255123    0    0    0
     130    7    5    0.0063680000000000    39.8299051551    10.700780172    0.260139021536    0    0    0
     131    7    2    -0.0031840000000000    40.8579382178    9.3875880278    -1.13007722869    0    0    0
     132    7    2    -0.0031840000000000    39.1420616832    10.6124136066    1.13007570592    0    0    0
     133    7    2    -0.0031840000000000    39.3189010002    11.2764398544    -0.54311547551    0    0    0
     134    7    4    0.0387310000000000    41.0963548866    11.4494814359    0.691116415865    0    0    0
     135    7    2    -0.0031840000000000    41.6105281737    10.8813289567    1.4968638027    0    0    0
     136    7    3    -0.1049480000000000    40.7618417265    12.8450872176    1.20962810556    0    0    0
     137    7    2    -0.0031840000000000    41.7872164004    11.5448060054    -0.174917218421    0    0    0
     138    7    1    0.0241950000000000    40.0888239113    12.7785518159    2.09094730276    0    0    0
     139    7    1    0.0241950000000000    40.2658709935    13.4433568291    0.415794066783    0    0    0
     140    7    1    0.0241950000000000    41.695766951    13.362954817    1.51385596486    0    0    0
     141    8    3    -0.1049480000000000    10.2337306188    3.09032999365    59.2696923193    0    0    0
     142    8    4    0.0387310000000000    9.48786315454    1.86354057044    59.7865466136    0    0    0
     143    8    1    0.0241950000000000    9.56749042379    3.97748329275    59.3148674496    0    0    0
     144    8    1    0.0241950000000000    10.5484373489    2.93523272494    58.2156482393    0    0    0
     145    8    1    0.0241950000000000    11.131492373    3.28765716849    59.8935426902    0    0    0
     146    8    2    -0.0031840000000000    8.58407772115    1.70270469819    59.1590959197    0    0    0
     147    8    2    -0.0031840000000000    9.1659568047    2.0544185333    60.8336067189    0    0    0
     148    8    5    0.0063680000000000    10.376419139    0.615145003954    59.7399978079    0    0    0
     149    8    2    -0.0031840000000000    10.6976434629    0.432449619799    58.6906252048    0    0    0
     150    8    5    0.0063680000000000    9.62358095315    -0.61514537452    60.2600043953    0    0    0
     151    8    2    -0.0031840000000000    11.2800152294    0.784461496653    60.3665543955    0    0    0
     152    8    2    -0.0031840000000000    8.71998486281    -0.784461867219    59.6334478077    0    0    0
     153    8    2    -0.0031840000000000    9.30235367542    -0.432452122975    61.3093676857    0    0    0
     154    8    4    0.0387310000000000    10.5121369376    -1.86354094101    60.2134555897    0    0    0
     155    8    2    -0.0031840000000000    10.8340482734    -2.05441093299    59.1663920776    0    0    0
     156    8    3    -0.1049480000000000    9.76626947342    -3.09033036422    60.7303098839    0    0    0
     157    8    2    -0.0031840000000000    11.415922371    -1.70270506876    60.8409062835    0    0    0
     158    8    1    0.0241950000000000    8.86850771919    -3.28765753905    60.106459513    0    0    0
     159    8    1    0.0241950000000000    9.45155978941    -2.93523522812    61.7843446512    0    0    0
     160    8    1    0.0241950000000000    10.4325096684    -3.97748366332    60.6851347536    0    0    0
     161    9    3    -0.1049480000000000    47.9569643604    19.1532751125    22.290672635    0    0    0
     162    9    4    0.0387310000000000    48.9065284943    18.8592193223    21.1329472477    0    0    0
     163    9    1    0.0241950000000000    47.5260117696    18.2025737261    22.6693605067    0    0    0
     164    9    1    0.0241950000000000    47.1272714723    19.8099639377    21.9523327028    0    0    0
     165    9    1    0.0241950000000000    48.5022341897    19.651896332    23.1202274308    0    0    0
     166    9    2    -0.0031840000000000    48.3407377629    18.3415206289    20.3278015641    0    0    0
     167    9    2    -0.0031840000000000    49.7129276657    18.1837716179    21.4933411071    0    0    0
     168    9    5    0.0063680000000000    49.5233528785    20.1497826648    20.5814366336    0    0    0
     169    9    2    -0.0031840000000000    48.7110864078    20.8219874897    20.2263178031    0    0    0
     170    9    5    0.0063680000000000    50.4766492461    19.8502168922    19.4185639046    0    0    0
     171    9    2    -0.0031840000000000    50.0844385465    20.664104638    21.3928446122    0    0    0
     172    9    2    -0.0031840000000000    49.9155635781    19.335894919    18.6071559261    0    0    0
     173    9    2    -0.0031840000000000    51.2889081933    19.1780132596    19.7736762563    0    0    0
     174    9    4    0.0387310000000000    51.0934736303    21.1407802347    18.8670532906    0    0    0
     175    9    2    -0.0031840000000000    50.2870682596    21.8162299845    18.5066670064    0    0    0
     176    9    3    -0.1049480000000000    52.0430377642    20.8467244445    17.7093279033    0    0    0
     177    9    2    -0.0031840000000000    51.6592643618    21.6584789281    19.6721989741    0    0    0
     178    9    1    0.0241950000000000    51.497767935    20.348103225    16.8797731074    0    0    0
     179    9    1    0.0241950000000000    52.8727231289    20.1900368116    18.0476613566    0    0    0
     180    9    1    0.0241950000000000    52.4739903551    21.7974258309    17.3306400315    0    0    0
     181    10    3    -0.1049480000000000    22.2062147781    51.0617685755    42.03553006    0    0    0
     182    10    4    0.0387310000000000    21.0391303134    51.2472526057    41.0701397497    0    0    0
     183    10    1    0.0241950000000000    22.5124996057    52.0481474201    42.4432114862    0    0    0
     184    10    1    0.0241950000000000    23.0739805739    50.6092333124    41.5098887653    0    0    0
     185    10    1    0.0241950000000000    21.9079254691    50.4048994496    42.8803080818    0    0    0
     186    10    2    -0.0031840000000000    21.3578737555    51.9250162585    40.2482944421    0    0    0
     187    10    2    -0.0031840000000000    20.1941701486    51.7210946297    41.6159501702    0    0    0
     188    10    5    0.0063680000000000    20.5862840245    49.9047433708    40.4846577155    0    0    0
     189    10    2    -0.0031840000000000    21.4372137255    49.434840277    39.9434966893    0    0    0
     190    10    5    0.0063680000000000    19.4137139258    50.0952566017    39.5153431779    0    0    0
     191    10    2    -0.0031840000000000    20.2725244376    49.2307461464    41.3123108975    0    0    0
     192    10    2    -0.0031840000000000    19.7274735128    50.7692538262    38.6876899959    0    0    0
     193    10    2    -0.0031840000000000    18.5627906505    50.5651605003    40.0564965842    0    0    0
     194    10    4    0.0387310000000000    18.960867637    48.7527473669    38.9298611437    0    0    0
     195    10    2    -0.0031840000000000    19.805835447    48.2789040079    38.3840570293    0    0    0
     196    10    3    -0.1049480000000000    17.7937831722    48.9382313971    37.9644708334    0    0    0
     197    10    2    -0.0031840000000000    18.6421241948    48.0749837141    39.7517064513    0    0    0
     198    10    1    0.0241950000000000    18.0920724812    49.595100523    37.1196928115    0    0    0
     199    10    1    0.0241950000000000    16.9260238021    49.3907674649    38.4901045082    0    0    0
     200    10    1    0.0241950000000000    17.4874983447    47.9518525525    37.5567894071    0    0    0
     201    11    3    -0.1049480000000000    6.99336563807    29.4331125519    69.1185765971    0    0    0
     202    11    4    0.0387310000000000    8.21878867135    30.3257818306    69.291634024    0    0    0
     203    11    1    0.0241950000000000    6.1660131787    30.0200459489    68.6669629775    0    0    0
     204    11    1    0.0241950000000000    6.65703925951    29.0438345085    70.1031839216    0    0    0
     205    11    1    0.0241950000000000    7.22961281597    28.5784346383    68.4493857412    0    0    0
     206    11    2    -0.0031840000000000    7.94841756127    31.18291454    69.9463199349    0    0    0
     207    11    2    -0.0031840000000000    8.51983636439    30.718453337    68.2958567731    0    0    0
     208    11    5    0.0063680000000000    9.38542382299    29.5499168988    69.9138767821    0    0    0
     209    11    2    -0.0031840000000000    9.07607793879    29.1570028288    70.9076922516    0    0    0
     210    11    5    0.0063680000000000    10.6145775721    30.4500832318    70.0861214753    0    0    0
     211    11    2    -0.0031840000000000    9.64798063101    28.6921483892    69.2558310139    0    0    0
     212    11    2    -0.0031840000000000    10.3520207641    31.3078517414    70.7441672436    0    0    0
     213    11    2    -0.0031840000000000    10.9239204652    30.8429996203    69.0923152621    0    0    0
     214    11    4    0.0387310000000000    11.7812127238    29.6742183    70.7083642334    0    0    0
     215    11    2    -0.0031840000000000    11.4801570619    29.2815408508    71.7041403977    0    0    0
     216    11    3    -0.1049480000000000    13.006635757    30.5668875787    70.8814216603    0    0    0
     217    11    2    -0.0031840000000000    12.0515838338    28.8170855906    70.0536783225    0    0    0
     218    11    1    0.0241950000000000    12.7703885791    31.4215654923    71.5506125162    0    0    0
     219    11    1    0.0241950000000000    13.3429591445    30.9561679406    69.896823592    0    0    0
     220    11    1    0.0241950000000000    13.8339882164    29.9799541817    71.3330352799    0    0    0
     221    12    3    -0.1049480000000000    71.4883027328    47.8399467788    58.1952164016    0    0    0
     222    12    4    0.0387310000000000    70.2694617397    48.4083214281    58.9162197413    0    0    0
     223    12    1    0.0241950000000000    71.2103598844    46.8952062249    57.6822146231    0    0    0
     224    12    1    0.0241950000000000    72.3008868853    47.6245178703    58.9214407416    0    0    0
     225    12    1    0.0241950000000000    71.8589263373    48.5611968749    57.43591415    0    0    0
     226    12    2    -0.0031840000000000    69.906809341    47.6586211138    59.6529851972    0    0    0
     227    12    2    -0.0031840000000000    69.4657399673    48.593411057    58.1704542951    0    0    0
     228    12    5    0.0063680000000000    70.6134856031    49.7160754267    59.6384503693    0    0    0
     229    12    2    -0.0031840000000000    71.4203845892    49.5242923294    60.3799885003    0    0    0
     230    12    5    0.0063680000000000    69.3865130682    50.2839259195    60.361548438    0    0    0
     231    12    2    -0.0031840000000000    70.9789414945    50.4598738873    58.8962017802    0    0    0
     232    12    2    -0.0031840000000000    69.0210571768    49.5401274589    61.1037970271    0    0    0
     233    12    2    -0.0031840000000000    68.5796166986    50.4757041014    59.6200186133    0    0    0
     234    12    4    0.0387310000000000    69.7305369317    51.591679918    61.083779066    0    0    0
     235    12    2    -0.0031840000000000    70.5342667576    51.406586658    61.8295398266    0    0    0
     236    12    3    -0.1049480000000000    68.5116959385    52.1600545674    61.8047824057    0    0    0
     237    12    2    -0.0031840000000000    70.0931893304    52.3413802324    60.3470136101    0    0    0
     238    12    1    0.0241950000000000    68.1410723341    51.4388044713    62.5640846573    0    0    0
     239    12    1    0.0241950000000000    67.6991144025    52.3754785606    61.078566372    0    0    0
     240    12    1    0.0241950000000000    68.789638787    53.1047951213    62.3177841842    0    0    0
     241    13    3    -0.1049480000000000    37.663826234    71.2639862802    38.2442239326    0    0    0
     242    13    4    0.0387310000000000    38.4399068693    70.0947222582    38.84338119    0    0    0
     243    13    1    0.0241950000000000    36.8232489689    70.8773259947    37.6303172207    0    0    0
     244    13    1    0.0241950000000000    38.3265418555    71.8751717119    37.5950977627    0    0    0
     245    13    1    0.0241950000000000    37.2493903833    71.906029457    39.0505284355    0    0    0
     246    13    2    -0.0031840000000000    38.8237737762    69.4579393498    38.0166137584    0    0    0
     247    13    2    -0.0031840000000000    37.7487944032    69.4887347574    39.4691092994    0    0    0
     248    13    5    0.0063680000000000    39.6114116687    70.5887736087    39.6999322903    0    0    0
     249    13    2    -0.0031840000000000    40.2964364121    71.1970681863    39.0686919735    0    0    0
     250    13    5    0.0063680000000000    40.3885876021    69.4112256098    40.3000696738    0    0    0
     251    13    2    -0.0031840000000000    39.2205463593    71.2278895336    40.5224177133    0    0    0
     252    13    2    -0.0031840000000000    40.7794529115    68.7721096849    39.4775842507    0    0    0
     253    13    2    -0.0031840000000000    39.7035690097    68.8029310696    40.9313021063    0    0    0
     254    13    4    0.0387310000000000    41.5600924015    69.9052769603    41.1566207741    0    0    0
     255    13    2    -0.0031840000000000    42.2511998575    70.5112722011    40.5308887926    0    0    0
     256    13    3    -0.1049480000000000    42.3361730368    68.7360129383    41.7557780315    0    0    0
     257    13    2    -0.0031840000000000    41.1762254946    70.5420598687    41.9833882056    0    0    0
     258    13    1    0.0241950000000000    42.7506088875    68.0939697615    40.9494735286    0    0    0
     259    13    1    0.0241950000000000    41.6734635664    68.124827544    42.4048963171    0    0    0
     260    13    1    0.0241950000000000    43.1767503019    69.1226732238    42.3696847434    0    0    0
     261    14    3    -0.1049480000000000    41.3289054442    42.4838481223    51.4841251989    0    0    0
     262    14    4    0.0387310000000000    40.2112187734    41.8013054729    50.7009387828    0    0    0
     263    14    1    0.0241950000000000    41.0477357411    43.5376789133    51.6923126816    0    0    0
     264    14    1    0.0241950000000000    42.2719080124    42.4767396398    50.896928437    0    0    0
     265    14    1    0.0241950000000000    41.4967977556    41.9629492628    52.4508619865    0    0    0
     266    14    2    -0.0031840000000000    40.0496398006    42.3550728594    49.750347084    0    0    0
     267    14    2    -0.0031840000000000    39.2760925586    41.8423187507    51.3011469404    0    0    0
     268    14    5    0.0063680000000000    40.5626231559    40.3411189391    50.3934322532    0    0    0
     269    14    2    -0.0031840000000000    41.5007001534    40.3075158292    49.7962489417    0    0    0
     270    14    5    0.0063680000000000    39.4373752156    39.6588801128    49.6065689505    0    0    0
     271    14    2    -0.0031840000000000    40.7264975773    39.7943275995    51.3483623719    0    0    0
     272    14    2    -0.0031840000000000    39.2735007941    40.2056714524    48.6516388319    0    0    0
     273    14    2    -0.0031840000000000    38.4993026667    39.6924857783    50.2037436784    0    0    0
     274    14    4    0.0387310000000000    39.7887795981    38.198693579    49.2990624209    0    0    0
     275    14    2    -0.0031840000000000    40.7239132011    38.157684671    48.6988593935    0    0    0