LAMMPS Input Data File for a single TIP4P/F water molecule
 
           3  atoms
           2  bonds
           1  angles
		                         
           2  atom types
           1  bond types
           1  angle types
		                          
 -50.000000 50.000000 xlo xhi
 -50.000000 50.000000 ylo yhi
 -50.000000 50.000000 zlo zhi
 
Masses
 
  1 15.9994 
  2  1.0080
 
Pair Coeffs
 
  1    0.185200    3.158900    
  2    0.000000    0.000000    
  
Bond Coeffs
 
  1    0.9419    607.183537    -1388.651620    1852.576980

Angle Coeffs
 
  1    43.925000  107.400000  

Atoms
 
      1      1   1  -1.1128   1.55000   1.55000   1.50000   0   0   0
      2      1   2   0.5564   1.55000   2.30695   2.08588   0   0   0
      3      1   2   0.5564   1.55000   0.79305   2.08588   0   0   0
        
Bonds
 
     1   1      1      2
     2   1      1      3
        
Angles
 
     1   1      2      1      3


 



    
   
