Multiple Molecule Type Simulation

          20950 atoms
          16800 bonds
          21650 angles
          22500 dihedrals

          7 atom types
          7 bond types
          11 angle types
          9 dihedral types

4.722828 113.251197228 xlo xhi
5.620754 64.298987 ylo yhi
6.268902 64.716345 zlo zhi

Masses

  1 1.007940
  2 1.007940
  3 12.011000
  4 12.011000
  5 12.011000
  6 15.9994
  7 1.0080

Pair Coeffs

  1    0.018252    2.467643
  2    0.010204    2.447434
  3    0.129282    3.386973
  4    0.133852    3.392671
  5    0.130579    3.430693
  6    0.185200    3.158900
  7    0.000000    0.000000

Bond Coeffs

  1    367.938739    1.093271
  2    359.363093    1.095524
  3    357.824476    1.096575
  4    294.361657    1.526147
  5    289.824065    1.525767
  6    290.240535    1.525287
  7    0.9419    607.183537    -1388.651620    1852.576980

Angle Coeffs

  1    41.962066    107.495171
  2    43.224241    110.873631
  3    43.018815    106.054406
  4    45.222414    109.693614
  5    44.210074    109.051048
  6    43.277297    105.989161
  7    43.611988    109.344547
  8    43.593593    109.339475
  9    53.738406    113.005696
  10    50.618101    113.405649
  11    43.925000    107.400000

Dihedral Coeffs

  1    0.110238    -0.048852    0.206979    -0.015724
  2    -0.238767    -0.072612    0.533725    -0.036539
  3    0.077698    -0.758255    0.296852    -0.142573
  4    -0.127848    -0.241782    0.231764    -0.182889
  5    -0.228887    0.534766    0.420231    0.004728
  6    0.102680    -0.948204    0.321131    -0.216006
  7    -0.343973    0.252297    0.377246    -0.040626
  8    0.089239    0.571239    0.751144    -0.199131
  9    -0.082353    0.827762    0.238227    0.012414

Atoms

     1  1  3  -0.104948  36.144508  44.358459  18.902817  0  0  0
     2  1  4  0.038731  35.405437  44.639408  20.199099  0  0  0
     3  1  1  0.024195  37.195656  44.244198  19.151651  0  0  0
     4  1  1  0.024195  36.112957  45.171539  18.268505  0  0  0
     5  1  1  0.024195  35.764042  43.539875  18.334927  0  0  0
     6  1  2  -0.003184  35.856441  45.483341  20.675623  0  0  0
     7  1  2  -0.003184  35.588127  43.732586  20.898363  0  0  0
     8  1  5  0.006368  33.855152  44.847561  20.25643  0  0  0
     9  1  2  -0.003184  33.265884  43.983837  19.925978  0  0  0
     10  1  5  0.006368  33.409771  46.145908  19.570532  0  0  0
     11  1  2  -0.003184  33.430782  45.038902  21.291197  0  0  0
     12  1  2  -0.003184  33.705078  46.109421  18.476578  0  0  0
     13  1  2  -0.003184  33.866917  47.083199  19.938736  0  0  0
     14  1  4  0.038731  31.909918  46.319542  19.627287  0  0  0
     15  1  2  -0.003184  31.366158  45.440937  19.249052  0  0  0
     16  1  3  -0.104948  31.385942  47.465614  18.7945  0  0  0
     17  1  2  -0.003184  31.638744  46.319553  20.681797  0  0  0
     18  1  1  0.024195  31.230219  47.279575  17.761831  0  0  0
     19  1  1  0.024195  31.914785  48.387596  18.996485  0  0  0
     20  1  1  0.024195  30.366465  47.672897  19.141342  0  0  0
     21  2  3  -0.104948  50.436596  21.348284  14.921758  0  0  0
     22  2  4  0.038731  49.073765  21.453688  14.246132  0  0  0
     23  2  1  0.024195  50.53368  20.346884  15.37921  0  0  0
     24  2  1  0.024195  50.66666  22.105978  15.614914  0  0  0
     25  2  1  0.024195  51.172195  21.462219  14.129722  0  0  0
     26  2  2  -0.003184  48.260857  21.228354  14.950412  0  0  0
     27  2  2  -0.003184  49.125725  20.628714  13.555293  0  0  0
     28  2  5  0.006368  48.647659  22.814713  13.684803  0  0  0
     29  2  2  -0.003184  49.040623  23.636848  14.302287  0  0  0
     30  2  5  0.006368  47.12606  22.939791  13.504221  0  0  0
     31  2  2  -0.003184  49.12299  23.078966  12.753294  0  0  0
     32  2  2  -0.003184  46.605774  22.679787  14.380557  0  0  0
     33  2  2  -0.003184  46.76078  22.11282  12.868628  0  0  0
     34  2  4  0.038731  46.716766  24.249411  12.84949  0  0  0
     35  2  2  -0.003184  47.307102  24.383688  11.952276  0  0  0
     36  2  3  -0.104948  46.989243  25.629959  13.621805  0  0  0
     37  2  2  -0.003184  45.654037  24.208502  12.402345  0  0  0
     38  2  1  0.024195  46.641129  25.645969  14.624418  0  0  0
     39  2  1  0.024195  46.704861  26.552923  13.087236  0  0  0
     40  2  1  0.024195  48.043137  25.771292  13.834955  0  0  0
     41  3  3  -0.104948  35.971989  31.990545  52.021671  0  0  0
     42  3  4  0.038731  35.180805  30.853394  52.632252  0  0  0
     43  3  1  0.024195  36.307446  32.034286  50.94915  0  0  0
     44  3  1  0.024195  36.88007  32.224312  52.62455  0  0  0
     45  3  1  0.024195  35.508595  32.930275  52.045216  0  0  0
     46  3  2  -0.003184  35.374157  30.750492  53.683624  0  0  0
     47  3  2  -0.003184  35.507126  29.850727  52.200806  0  0  0
     48  3  5  0.006368  33.624039  30.983196  52.482441  0  0  0
     49  3  2  -0.003184  33.244961  31.929281  52.931953  0  0  0
     50  3  5  0.006368  33.068714  29.758156  53.20834  0  0  0
     51  3  2  -0.003184  33.361534  31.051464  51.457966  0  0  0
     52  3  2  -0.003184  32.020294  29.936504  53.563679  0  0  0
     53  3  2  -0.003184  33.706367  29.441273  54.06115  0  0  0
     54  3  4  0.038731  32.994514  28.46278  52.392857  0  0  0
     55  3  2  -0.003184  33.886932  28.434233  51.813427  0  0  0
     56  3  3  -0.104948  31.819523  28.35256  51.467335  0  0  0
     57  3  2  -0.003184  33.038136  27.622364  53.113224  0  0  0
     58  3  1  0.024195  31.667234  27.412947  50.93792  0  0  0
     59  3  1  0.024195  31.835533  29.182745  50.769905  0  0  0
     60  3  1  0.024195  30.877312  28.509378  52.050537  0  0  0
     61  4  3  -0.104948  18.440369  32.856853  11.967798  0  0  0
     62  4  4  0.038731  18.479094  34.185829  11.202303  0  0  0
     63  4  1  0.024195  17.474955  32.347054  11.809065  0  0  0
     64  4  1  0.024195  18.563883  33.057106  13.054588  0  0  0
     65  4  1  0.024195  19.322582  32.182877  11.728149  0  0  0
     66  4  2  -0.003184  18.31959  33.928665  10.15163  0  0  0
     67  4  2  -0.003184  19.462831  34.586452  11.186949  0  0  0
     68  4  5  0.006368  17.425953  35.141293  11.734192  0  0  0
     69  4  2  -0.003184  16.536026  34.509819  11.992567  0  0  0
     70  4  5  0.006368  16.993565  36.255302  10.72905  0  0  0
     71  4  2  -0.003184  17.644258  35.7421  12.620469  0  0  0
     72  4  2  -0.003184  16.828474  35.994137  9.693302  0  0  0
     73  4  2  -0.003184  17.726244  36.998043  10.780804  0  0  0
     74  4  4  0.038731  15.687861  36.842552  11.279433  0  0  0
     75  4  2  -0.003184  14.864644  36.115047  11.234156  0  0  0
     76  4  3  -0.104948  15.012392  38.165524  10.738621  0  0  0
     77  4  2  -0.003184  15.744532  37.065029  12.405972  0  0  0
     78  4  1  0.024195  14.032202  38.249626  11.269534  0  0  0
     79  4  1  0.024195  14.805889  38.096123  9.631126  0  0  0
     80  4  1  0.024195  15.652696  39.030716  10.921665  0  0  0
     81  5  3  -0.104948  54.59906  51.309956  16.532055  0  0  0
     82  5  4  0.038731  54.849945  51.563835  15.072406  0  0  0
     83  5  1  0.024195  55.522903  50.937016  16.969139  0  0  0
     84  5  1  0.024195  53.871777  50.47821  16.670202  0  0  0
     85  5  1  0.024195  54.227818  52.25034  17.013237  0  0  0
     86  5  2  -0.003184  55.248856  52.540459  14.833248  0  0  0
     87  5  2  -0.003184  53.778843  51.70562  14.681705  0  0  0
     88  5  5  0.006368  55.302418  50.283482  14.281012  0  0  0
     89  5  2  -0.003184  55.57016  50.509857  13.198577  0  0  0
     90  5  5  0.006368  54.400944  49.042831  14.409828  0  0  0
     91  5  2  -0.003184  56.353844  50.078163  14.586138  0  0  0
     92  5  2  -0.003184  54.367447  48.649277  15.434562  0  0  0
     93  5  2  -0.003184  54.877495  48.225677  13.881517  0  0  0
     94  5  4  0.038731  53.03611  49.22422  13.780015  0  0  0
     95  5  2  -0.003184  52.347439  49.848236  14.343055  0  0  0
     96  5  3  -0.104948  52.12661  47.975826  13.503466  0  0  0
     97  5  2  -0.003184  53.138805  49.739155  12.816142  0  0  0
     98  5  1  0.024195  51.283661  48.127838  12.822839  0  0  0
     99  5  1  0.024195  51.620506  47.722195  14.472624  0  0  0
     100  5  1  0.024195  52.724995  47.177269  13.216306  0  0  0
     101  6  3  -0.104948  33.946239  36.625259  58.139297  0  0  0
     102  6  4  0.038731  34.682156  37.476665  57.121666  0  0  0
     103  6  1  0.024195  32.866138  36.84584  58.014378  0  0  0
     104  6  1  0.024195  34.234779  36.856964  59.144908  0  0  0
     105  6  1  0.024195  34.229942  35.541924  57.924854  0  0  0
     106  6  2  -0.003184  34.267544  37.378525  56.151009  0  0  0
     107  6  2  -0.003184  35.780949  37.298512  56.977581  0  0  0
     108  6  5  0.006368  34.768414  39.020576  57.354935  0  0  0
     109  6  2  -0.003184  35.500729  39.170097  58.16008  0  0  0
     110  6  5  0.006368  33.347866  39.650497  57.467674  0  0  0
     111  6  2  -0.003184  35.306854  39.425644  56.520782  0  0  0
     112  6  2  -0.003184  32.813969  39.12933  58.250664  0  0  0
     113  6  2  -0.003184  32.861889  39.727604  56.486904  0  0  0
     114  6  4  0.038731  33.31805  41.081879  57.964745  0  0  0
     115  6  2  -0.003184  32.39994  41.238621  58.47036  0  0  0
     116  6  3  -0.104948  33.66238  42.106575  56.848114  0  0  0
     117  6  2  -0.003184  34.035343  41.107624  58.803352  0  0  0
     118  6  1  0.024195  32.882092  42.19939  56.099003  0  0  0
     119  6  1  0.024195  34.635159  41.790508  56.383862  0  0  0
     120  6  1  0.024195  33.829079  43.131489  57.244644  0  0  0
     121  7  3  -0.104948  11.759905  33.77446  26.394403  0  0  0
     122  7  4  0.038731  12.53533  33.894428  27.715584  0  0  0
     123  7  1  0.024195  10.743275  33.971394  26.465801  0  0  0
     124  7  1  0.024195  11.787376  32.802322  25.985626  0  0  0
     125  7  1  0.024195  12.033237  34.486382  25.645645  0  0  0
     126  7  2  -0.003184  12.225261  34.79837  28.144741  0  0  0
     127  7  2  -0.003184  13.554587  34.165871  27.504839  0  0  0
     128  7  5  0.006368  12.465327  32.808445  28.704935  0  0  0
     129  7  2  -0.003184  13.084661  33.114433  29.578241  0  0  0
     130  7  5  0.006368  12.804381  31.418839  28.152588  0  0  0
     131  7  2  -0.003184  11.450948  32.646374  29.169247  0  0  0
     132  7  2  -0.003184  13.652403  31.500637  27.512396  0  0  0
     133  7  2  -0.003184  11.96566  31.018639  27.555283  0  0  0
     134  7  4  0.038731  13.188888  30.441601  29.25844  0  0  0
     135  7  2  -0.003184  14.15598  30.900009  29.677422  0  0  0
     136  7  3  -0.104948  13.405011  29.053957  28.659958  0  0  0
     137  7  2  -0.003184  12.455672  30.436453  30.043631  0  0  0
     138  7  1  0.024195  13.790965  28.42561  29.359541  0  0  0
     139  7  1  0.024195  14.10798  29.101336  27.864471  0  0  0
     140  7  1  0.024195  12.517574  28.658337  28.165298  0  0  0
     141  8  3  -0.104948  50.968475  37.168648  16.91243  0  0  0
     142  8  4  0.038731  50.387764  35.925716  17.562506  0  0  0
     143  8  1  0.024195  50.852112  38.077454  17.609703  0  0  0
     144  8  1  0.024195  50.477932  37.403336  15.933237  0  0  0
     145  8  1  0.024195  52.032669  36.931797  16.707048  0  0  0
     146  8  2  -0.003184  49.331223  36.202831  17.835838  0  0  0
     147  8  2  -0.003184  50.862175  35.604393  18.49622  0  0  0
     148  8  5  0.006368  50.585842  34.750748  16.543192  0  0  0
     149  8  2  -0.003184  50.372223  35.113022  15.530533  0  0  0
     150  8  5  0.006368  49.659679  33.540123  16.887026  0  0  0
     151  8  2  -0.003184  51.591969  34.407703  16.532593  0  0  0
     152  8  2  -0.003184  48.599052  33.934521  16.877319  0  0  0
     153  8  2  -0.003184  49.863586  33.149712  17.885227  0  0  0
     154  8  4  0.038731  49.693516  32.381191  15.933361  0  0  0
     155  8  2  -0.003184  49.998196  32.803398  14.937192  0  0  0
     156  8  3  -0.104948  48.465744  31.547409  15.6834  0  0  0
     157  8  2  -0.003184  50.476711  31.683678  16.156109  0  0  0
     158  8  1  0.024195  47.607594  32.189209  15.447345  0  0  0
     159  8  1  0.024195  48.090286  31.044165  16.579941  0  0  0
     160  8  1  0.024195  48.637566  30.801203  14.853067  0  0  0
     161  9  3  -0.104948  40.008915  43.185658  52.560345  0  0  0
     162  9  4  0.038731  39.324261  42.079872  51.7491  0  0  0
     163  9  1  0.024195  39.652538  43.282776  53.567348  0  0  0
     164  9  1  0.024195  39.93969  44.208263  52.169182  0  0  0
     165  9  1  0.024195  41.097225  43.074242  52.618614  0  0  0
     166  9  2  -0.003184  38.262321  42.281059  51.919102  0  0  0
     167  9  2  -0.003184  39.548138  41.069332  52.127254  0  0  0
     168  9  5  0.006368  39.567944  42.282661  50.21891  0  0  0
     169  9  2  -0.003184  39.546406  43.243496  49.861938  0  0  0
     170  9  5  0.006368  38.6068  41.360455  49.394249  0  0  0
     171  9  2  -0.003184  40.570518  41.898537  49.897415  0  0  0
     172  9  2  -0.003184  37.574066  41.528397  49.732475  0  0  0
     173  9  2  -0.003184  38.837814  40.297462  49.56744  0  0  0
     174  9  4  0.038731  38.740372  41.638657  47.888481  0  0  0
     175  9  2  -0.003184  38.635529  42.755005  47.882614  0  0  0
     176  9  3  -0.104948  37.553436  41.025959  46.990154  0  0  0
     177  9  2  -0.003184  39.697662  41.436852  47.547585  0  0  0
     178  9  1  0.024195  36.535259  41.263741  47.413021  0  0  0
     179  9  1  0.024195  37.598759  39.974152  46.709202  0  0  0
     180  9  1  0.024195  37.654045  41.430466  45.980705  0  0  0
     181  10  3  -0.104948  55.478874  48.613686  24.626162  0  0  0
     182  10  4  0.038731  54.724621  49.116055  25.870644  0  0  0
     183  10  1  0.024195  54.983128  47.749645  24.262966  0  0  0
     184  10  1  0.024195  56.519726  48.444847  24.959023  0  0  0
     185  10  1  0.024195  55.537392  49.356575  23.807993  0  0  0
     186  10  2  -0.003184  54.642368  48.321663  26.654198  0  0  0
     187  10  2  -0.003184  53.643181  49.271065  25.714216  0  0  0
     188  10  5  0.006368  55.19809  50.535347  26.401175  0  0  0
     189  10  2  -0.003184  56.301167  50.490562  26.562475  0  0  0
     190  10  5  0.006368  54.70351  50.885834  27.847221  0  0  0
     191  10  2  -0.003184  55.080723  51.315796  25.63204  0  0  0
     192  10  2  -0.003184  54.904957  50.007454  28.450264  0  0  0
     193  10  2  -0.003184  53.606148  51.058212  27.821175  0  0  0
     194  10  4  0.038731  55.45607  52.130951  28.394999  0  0  0
     195  10  2  -0.003184  56.408352  51.850025  28.569521  0  0  0
     196  10  3  -0.104948  54.997627  52.712811  29.764128  0  0  0
     197  10  2  -0.003184  55.286594  52.975998  27.676062  0  0  0
     198  10  1  0.024195  55.585052  53.604691  30.061472  0  0  0
     199  10  1  0.024195  55.102951  51.976986  30.645487  0  0  0
     200  10  1  0.024195  53.976097  53.066811  29.704681  0  0  0
     201  11  3  -0.104948  44.841991  17.4077  42.132736  0  0  0
     202  11  4  0.038731  43.365566  17.666641  41.975235  0  0  0
     203  11  1  0.024195  45.194111  17.068497  41.160679  0  0  0
     204  11  1  0.024195  45.059078  16.531078  42.846123  0  0  0
     205  11  1  0.024195  45.353146  18.329935  42.353268  0  0  0
     206  11  2  -0.003184  43.221233  18.595858  41.482685  0  0  0
     207  11  2  -0.003184  43.056053  17.941408  42.997078  0  0  0
     208  11  5  0.006368  42.442509  16.62266  41.261517  0  0  0
     209  11  2  -0.003184  42.500755  15.758669  41.955799  0  0  0
     210  11  5  0.006368  42.820015  16.330584  39.799667  0  0  0
     211  11  2  -0.003184  41.433964  16.949261  41.330139  0  0  0
     212  11  2  -0.003184  42.450115  15.387743  39.432701  0  0  0
     213  11  2  -0.003184  43.91124  16.045172  39.809483  0  0  0
     214  11  4  0.038731  42.385201  17.456734  38.797329  0  0  0
     215  11  2  -0.003184  41.314266  17.38838  38.583607  0  0  0
     216  11  3  -0.104948  43.295437  17.482475  37.575054  0  0  0
     217  11  2  -0.003184  42.359215  18.489243  39.227524  0  0  0
     218  11  1  0.024195  43.456196  16.519249  37.092087  0  0  0
     219  11  1  0.024195  44.35458  17.864426  37.733604  0  0  0
     220  11  1  0.024195  42.852379  18.049162  36.790051  0  0  0
     221  12  3  -0.104948  48.992184  45.536724  35.567978  0  0  0
     222  12  4  0.038731  49.939098  44.468021  36.094952  0  0  0
     223  12  1  0.024195  48.081486  45.080647  35.161171  0  0  0
     224  12  1  0.024195  49.381294  46.211014  34.828709  0  0  0
     225  12  1  0.024195  48.544498  46.159325  36.382545  0  0  0
     226  12  2  -0.003184  50.827469  44.870865  36.573654  0  0  0
     227  12  2  -0.003184  50.31076  43.809456  35.292454  0  0  0
     228  12  5  0.006368  49.228882  43.444992  37.010292  0  0  0
     229  12  2  -0.003184  48.903339  44.00251  37.910294  0  0  0
     230  12  5  0.006368  50.067688  42.360462  37.613037  0  0  0
     231  12  2  -0.003184  48.257339  43.063442  36.630817  0  0  0
     232  12  2  -0.003184  50.750839  42.844482  38.235233  0  0  0
     233  12  2  -0.003184  50.736435  41.879929  36.839348  0  0  0
     234  12  4  0.038731  49.326122  41.295712  38.502068  0  0  0
     235  12  2  -0.003184  48.862282  41.855087  39.308979  0  0  0
     236  12  3  -0.104948  50.154922  40.230003  39.143715  0  0  0
     237  12  2  -0.003184  48.480507  40.973377  37.986858  0  0  0
     238  12  1  0.024195  49.888115  40.075043  40.207142  0  0  0
     239  12  1  0.024195  51.25201  40.368008  38.992134  0  0  0
     240  12  1  0.024195  49.95438  39.307079  38.531078  0  0  0
     241  13  3  -0.104948  49.819321  31.206499  37.122684  0  0  0
     242  13  4  0.038731  51.019547  30.574238  37.754829  0  0  0
     243  13  1  0.024195  49.683575  32.202362  37.497738  0  0  0
     244  13  1  0.024195  48.917152  30.590076  37.277969  0  0  0
     245  13  1  0.024195  49.910416  31.412554  36.084663  0  0  0
     246  13  2  -0.003184  51.070232  29.46797  37.631294  0  0  0
     247  13  2  -0.003184  50.970798  30.829861  38.782497  0  0  0
     248  13  5  0.006368  52.315292  30.978914  37.186886  0  0  0
     249  13  2  -0.003184  52.419899  32.134251  37.186234  0  0  0
     250  13  5  0.006368  52.59874  30.286167  35.813438  0  0  0
     251  13  2  -0.003184  53.086582  30.608271  37.866623  0  0  0
     252  13  2  -0.003184  51.766151  30.578333  35.089138  0  0  0
     253  13  2  -0.003184  52.64397  29.149012  35.78038  0  0  0
     254  13  4  0.038731  53.949806  30.684305  35.241566  0  0  0
     255  13  2  -0.003184  54.783234  30.391172  35.810226  0  0  0
     256  13  3  -0.104948  53.973206  32.188663  34.843464  0  0  0
     257  13  2  -0.003184  54.053051  30.078897  34.265251  0  0  0
     258  13  1  0.024195  54.960117  32.438416  34.410923  0  0  0
     259  13  1  0.024195  53.946533  32.940792  35.620846  0  0  0
     260  13  1  0.024195  53.157684  32.495842  34.175827  0  0  0
     261  14  3  -0.104948  40.511353  54.104607  42.955719  0  0  0
     262  14  4  0.038731  41.145805  53.117233  43.839451  0  0  0
     263  14  1  0.024195  40.921097  55.134815  43.054173  0  0  0
     264  14  1  0.024195  39.448353  54.19873  43.220879  0  0  0
     265  14  1  0.024195  40.553928  53.95657  41.86507  0  0  0
     266  14  2  -0.003184  40.614315  52.121445  43.723351  0  0  0
     267  14  2  -0.003184  40.808197  53.563934  44.77808  0  0  0
     268  14  5  0.006368  42.648029  52.912479  43.690235  0  0  0
     269  14  2  -0.003184  42.968338  52.242985  44.462906  0  0  0
     270  14  5  0.006368  43.477791  54.210865  43.870697  0  0  0
     271  14  2  -0.003184  42.86095  52.50301  42.710217  0  0  0
     272  14  2  -0.003184  43.084816  54.647381  44.816429  0  0  0
     273  14  2  -0.003184  43.276417  54.894882  43.016384  0  0  0
     274  14  4  0.038731  44.958382  53.987495  43.945522  0  0  0
     275  14  2  -0.003184  45.49662  54.903797  44.234806  0  0  0
     276  14  3  -0.104948  45.616329  53.699905  42.565292  0  0  0
     277  14  2  -0.003184  45.156746  53.170216  44.627239  0  0  0
     278  14  1  0.024195  46.555275  53.147083  42.69141  0  0  0
     279  14  1  0.024195  45.836903  54.613384  41.978683  0  0  0
     280  14  1  0.024195  44.944134  53.111404  41.953545  0  0  0
     281  15  3  -0.104948  15.142234  53.235119  45.80299  0  0  0
     282  15  4  0.038731  14.568259  51.8755  45.621883  0  0  0
     283  15  1  0.024195  16.003061  53.174702  46.398769  0  0  0
     284  15  1  0.024195  14.327018  53.853184  46.254227  0  0  0
     285  15  1  0.024195  15.416857  53.712925  44.876736  0  0  0
     286  15  2  -0.003184  14.44857  51.336266  46.597599  0  0  0
     287  15  2  -0.003184  15.28243  51.211678  45.093098  0  0  0
     288  15  5  0.006368  13.251751  51.810978  44.895962  0  0  0
     289  15  2  -0.003184  13.431654  52.153835  43.883797  0  0  0
     290  15  5  0.006368  12.025004  52.517136  45.466381  0  0  0
     291  15  2  -0.003184  13.077497  50.727409  44.763447  0  0  0
     292  15  2  -0.003184  12.16267  53.601929  45.185463  0  0  0
     293  15  2  -0.003184  12.071166  52.558392  46.575905  0  0  0
     294  15  4  0.038731  10.73711  51.86198  45.018311  0  0  0
     295  15  2  -0.003184  10.819828  51.515408  43.996857  0  0  0
     296  15  3  -0.104948  9.389622  52.661457  45.125778  0  0  0
     297  15  2  -0.003184  10.649929  50.981987  45.651257  0  0  0
     298  15  1  0.024195  9.217998  53.340588  44.286713  0  0  0
     299  15  1  0.024195  9.24768  53.124016  46.118183  0  0  0
     300  15  1  0.024195  8.608059  51.960587  45.004837  0  0  0
     301  16  3  -0.104948  17.087934  13.786313  38.452782  0  0  0
     302  16  4  0.038731  17.225458  14.5502  37.189007  0  0  0
     303  16  1  0.024195  16.340952  13.011205  38.31258  0  0  0
     304  16  1  0.024195  16.781239  14.461037  39.307308  0  0  0
     305  16  1  0.024195  17.984055  13.233134  38.622139  0  0  0
     306  16  2  -0.003184  17.828701  15.407986  37.406116  0  0  0
     307  16  2  -0.003184  16.27206  15.024357  36.881821  0  0  0
     308  16  5  0.006368  17.780342  13.861481  35.911156  0  0  0
     309  16  2  -0.003184  16.935932  13.104094  35.677914  0  0  0
     310  16  5  0.006368  19.169619  13.178256  35.998955  0  0  0
     311  16  2  -0.003184  17.823591  14.513085  35.032074  0  0  0
     312  16  2  -0.003184  19.443598  12.630128  35.083279  0  0  0
     313  16  2  -0.003184  19.022894  12.322681  36.647659  0  0  0
     314  16  4  0.038731  20.40976  13.940005  36.441036  0  0  0
     315  16  2  -0.003184  20.685284  14.759147  35.738434  0  0  0
     316  16  3  -0.104948  21.630928  13.052876  36.601784  0  0  0
     317  16  2  -0.003184  20.310326  14.547612  37.392105  0  0  0
     318  16  1  0.024195  22.595831  13.64967  36.589607  0  0  0
     319  16  1  0.024195  21.782814  12.220658  35.864643  0  0  0
     320  16  1  0.024195  21.621218  12.71129  37.571369  0  0  0
     321  17  3  -0.104948  23.292465  30.014032  28.74659  0  0  0
     322  17  4  0.038731  22.916342  30.0103  27.312744  0  0  0
     323  17  1  0.024195  23.798817  29.095413  29.092016  0  0  0
     324  17  1  0.024195  22.400335  30.074785  29.364004  0  0  0
     325  17  1  0.024195  23.911528  30.886803  28.941031  0  0  0
     326  17  2  -0.003184  23.626232  30.576305  26.761433  0  0  0
     327  17  2  -0.003184  21.946957  30.502388  27.154739  0  0  0
     328  17  5  0.006368  22.87591  28.655342  26.650217  0  0  0
     329  17  2  -0.003184  23.867849  28.258533  26.461889  0  0  0
     330  17  5  0.006368  22.144323  28.493834  25.32597  0  0  0
     331  17  2  -0.003184  22.574404  28.00053  27.435278  0  0  0
     332  17  2  -0.003184  22.729086  29.004622  24.643116  0  0  0
     333  17  2  -0.003184  21.226542  29.087082  25.367176  0  0  0
     334  17  4  0.038731  21.928116  27.057482  24.802111  0  0  0
     335  17  2  -0.003184  21.34886  27.141333  23.906288  0  0  0
     336  17  3  -0.104948  21.161377  26.085411  25.712915  0  0  0
     337  17  2  -0.003184  22.853018  26.526941  24.453142  0  0  0
     338  17  1  0.024195  21.649147  25.915106  26.630606  0  0  0
     339  17  1  0.024195  21.100216  25.143921  25.208147  0  0  0
     340  17  1  0.024195  20.152233  26.413492  25.87908  0  0  0
     341  18  3  -0.104948  11.029587  19.694147  51.883385  0  0  0
     342  18  4  0.038731  9.9976  19.145847  50.95018  0  0  0
     343  18  1  0.024195  12.085021  19.531384  51.578625  0  0  0
     344  18  1  0.024195  10.898331  19.370197  52.960716  0  0  0
     345  18  1  0.024195  10.856857  20.790081  51.957111  0  0  0
     346  18  2  -0.003184  9.026554  19.207092  51.505436  0  0  0
     347  18  2  -0.003184  10.186054  18.011162  50.934132  0  0  0
     348  18  5  0.006368  10.008365  19.76314  49.577381  0  0  0
     349  18  2  -0.003184  9.380138  20.67841  49.639259  0  0  0
     350  18  5  0.006368  9.533588  19.056984  48.384583  0  0  0
     351  18  2  -0.003184  11.016479  20.022038  49.286312  0  0  0
     352  18  2  -0.003184  10.253067  18.289581  48.129635  0  0  0
     353  18  2  -0.003184  9.44503  19.690861  47.452774  0  0  0
     354  18  4  0.038731  8.2575  18.276342  48.696899  0  0  0
     355  18  2  -0.003184  8.592933  17.388237  49.249054  0  0  0
     356  18  3  -0.104948  7.627949  17.80673  47.37841  0  0  0
     357  18  2  -0.003184  7.55114  18.909826  49.290161  0  0  0
     358  18  1  0.024195  8.26878  17.002172  46.817596  0  0  0
     359  18  1  0.024195  7.607441  18.724754  46.768192  0  0  0
     360  18  1  0.024195  6.592762  17.365936  47.47097  0  0  0
     361  19  3  -0.104948  39.51487  51.235264  25.87941  0  0  0
     362  19  4  0.038731  40.669064  50.442749  25.176958  0  0  0
     363  19  1  0.024195  39.77306  51.288322  26.920532  0  0  0
     364  19  1  0.024195  38.581791  50.725269  25.657728  0  0  0
     365  19  1  0.024195  39.537067  52.186398  25.413713  0  0  0
     366  19  2  -0.003184  41.158901  49.709541  25.813677  0  0  0
     367  19  2  -0.003184  41.487862  51.150913  25.078478  0  0  0
     368  19  5  0.006368  40.430027  49.7658  23.852583  0  0  0
     369  19  2  -0.003184  39.672943  50.317539  23.245852  0  0  0
     370  19  5  0.006368  40.045128  48.238544  23.814749  0  0  0
     371  19  2  -0.003184  41.355038  49.949753  23.319326  0  0  0
     372  19  2  -0.003184  39.08831  48.02898  24.359385  0  0  0
     373  19  2  -0.003184  40.800678  47.655106  24.406448  0  0  0
     374  19  4  0.038731  40.076324  47.73465  22.402191  0  0  0
     375  19  2  -0.003184  39.576225  48.474728  21.851812  0  0  0
     376  19  3  -0.104948  39.341568  46.437462  22.168621  0  0  0
     377  19  2  -0.003184  41.103508  47.641186  21.939281  0  0  0
     378  19  1  0.024195  40.064621  45.628193  22.085684  0  0  0
     379  19  1  0.024195  38.856838  46.438869  21.202566  0  0  0
     380  19  1  0.024195  38.647549  46.064316  22.908028  0  0  0
     381  20  3  -0.104948  43.626228  42.181889  44.339565  0  0  0
     382  20  4  0.038731  42.70903  42.86182  45.361187  0  0  0
     383  20  1  0.024195  44.702568  42.248192  44.585297  0  0  0
     384  20  1  0.024195  43.511143  42.543392  43.306675  0  0  0
     385  20  1  0.024195  43.407486  41.140034  44.239071  0  0  0
     386  20  2  -0.003184  42.732914  42.33268  46.335609  0  0  0
     387  20  2  -0.003184  41.680496  42.882805  44.972073  0  0  0
     388  20  5  0.006368  43.207268  44.251823  45.604378  0  0  0
     389  20  2  -0.003184  42.348381  44.745598  46.071945  0  0  0
     390  20  5  0.006368  43.575336  45.135353  44.397057  0  0  0
     391  20  2  -0.003184  43.949295  44.219135  46.402885  0  0  0
     392  20  2  -0.003184  42.743515  44.921173  43.67466  0  0  0
     393  20  2  -0.003184  44.547966  44.655312  44.039062  0  0  0
     394  20  4  0.038731  43.821377  46.624065  44.56094  0  0  0
     395  20  2  -0.003184  43.923462  47.188828  43.559647  0  0  0
     396  20  3  -0.104948  45.02467  46.942726  45.517216  0  0  0
     397  20  2  -0.003184  42.979237  47.078899  45.116199  0  0  0
     398  20  1  0.024195  45.099648  46.357353  46.43821  0  0  0
     399  20  1  0.024195  44.881824  47.921288  45.926613  0  0  0
     400  20  1  0.024195  45.996067  46.937672  45.044121  0  0  0
     401  21  3  -0.104948  41.121792  23.115366  16.261501  0  0  0
     402  21  4  0.038731  40.195049  21.960167  15.921169  0  0  0
     403  21  1  0.024195  41.07819  23.249544  17.396318  0  0  0
     404  21  1  0.024195  40.803627  24.068575  15.793095  0  0  0
     405  21  1  0.024195  42.041031  22.818235  15.807291  0  0  0
     406  21  2  -0.003184  39.25528  22.163242  16.519339  0  0  0
     407  21  2  -0.003184  40.614372  21.051439  16.215639  0  0  0
     408  21  5  0.006368  39.983593  21.856085  14.402729  0  0  0
     409  21  2  -0.003184  39.001698  21.377216  14.236162  0  0  0
     410  21  5  0.006368  41.105377  21.292786  13.473602  0  0  0
     411  21  2  -0.003184  39.693863  22.870108  14.071793  0  0  0
     412  21  2  -0.003184  42.085552  21.729225  13.634254  0  0  0
     413  21  2  -0.003184  40.84433  21.606977  12.389218  0  0  0
     414  21  4  0.038731  41.091129  19.706209  13.57731  0  0  0
     415  21  2  -0.003184  41.237579  19.214157  14.568681  0  0  0
     416  21  3  -0.104948  41.913746  18.852814  12.696997  0  0  0
     417  21  2  -0.003184  40.084854  19.46546  13.255627  0  0  0
     418  21  1  0.024195  41.511745  18.901398  11.662461  0  0  0
     419  21  1  0.024195  41.747864  17.810982  12.939503  0  0  0