LAMMPS data file via write_data, version 31 Mar 2017, timestep = 200000

10950 atoms
2 atom types
7300 bonds
1 bond types
3650 angles
1 angle types

-1.6431714074487935e+00 4.6643171407448563e+01 xlo xhi
-1.6431714074487935e+00 4.6643171407448563e+01 ylo yhi
-1.6431714074487935e+00 4.6643171407448563e+01 zlo zhi

Masses

1 15.9994
2 1.008

Pair Coeffs # lj/cut/tip4p/long

1 0.1852 3.1589
2 0 0

Bond Coeffs # harmonic

1 250 0.9572

Angle Coeffs # harmonic

1 50 104.52

Atoms # full

2628 876 2 5.5640000000000001e-01 -1.0125808527111364e+00 2.9113206048104932e+00 2.2057767412568467e+01 0 0 0
5652 1884 2 5.5640000000000001e-01 2.1111012787476380e+01 7.2526861028075889e+00 7.3535480186475173e+00 0 0 0
629 210 2 5.5640000000000001e-01 4.7426949109648016e+00 2.6609491006560519e+00 3.6897165133718826e+00 0 1 0
3684 1228 2 5.5640000000000001e-01 7.5503110817937102e-01 2.3641585560357798e+00 -5.0413219717680313e-02 0 0 0
1779 593 2 5.5640000000000001e-01 6.0966465228699063e-01 2.2508911438058177e-01 2.6875273714064596e+00 1 1 0
1777 593 1 -1.1128000000000000e+00 1.2262437628902667e-01 -5.5133342112705819e-01 2.4115044961896972e+00 1 1 0
3682 1228 1 -1.1128000000000000e+00 1.2694737341623292e+00 2.5283977997268936e+00 -8.4073177596687065e-01 0 0 0
3273 1091 2 5.5640000000000001e-01 4.1935561307418201e+00 1.7376609922616253e+00 3.3504969658673711e-01 1 1 0
3272 1091 2 5.5640000000000001e-01 3.1384824178961166e+00 2.3512980217566701e+00 -5.6058271861715103e-01 1 1 0
3271 1091 1 -1.1128000000000000e+00 4.0823260648353790e+00 2.2078246570500810e+00 -4.9126916907075424e-01 1 1 0
7344 2448 2 5.5640000000000001e-01 1.4568477136894531e+00 2.3045794069135224e+00 3.6896900022558734e+00 0 0 0
8817 2939 2 5.5640000000000001e-01 3.0140983894374607e-01 2.7282353462902389e+00 1.8626352645976283e+00 1 0 0
8815 2939 1 -1.1128000000000000e+00 -3.6675634637647825e-01 3.0794873463456840e+00 1.2740732886730077e+00 1 0 0
628 210 1 -1.1128000000000000e+00 4.5196509273764107e+00 1.7531468048521557e+00 3.8955702135374457e+00 0 1 0
8596 2866 1 -1.1128000000000000e+00 7.8534830279793439e+00 2.2149340749549417e+01 9.5608035913498721e+00 0 0 1
7342 2448 1 -1.1128000000000000e+00 1.5840938140994223e+00 1.6020002145401655e+00 3.0521786874228942e+00 0 0 0
7343 2448 2 5.5640000000000001e-01 2.5126537738680810e+00 1.3802200893972190e+00 3.1216045059066451e+00 0 0 0
1778 593 2 5.5640000000000001e-01 -7.9718568074770402e-01 -3.0309683443979574e-01 2.5040079090953222e+00 1 1 0
4369 1457 1 -1.1128000000000000e+00 -1.3162971698211756e+00 2.1110948153885843e+01 2.0291976737306886e+01 0 0 0
4571 1524 2 5.5640000000000001e-01 1.4633666983745478e+01 1.2412982962214651e+01 -1.3653962903498267e+00 1 1 1
1155 385 2 5.5640000000000001e-01 4.3985530022175636e+00 4.2265803788113550e+00 -8.3357121626156272e-01 0 1 0
6004 2002 1 -1.1128000000000000e+00 -8.0201348733809397e-01 1.4092186378563301e+01 1.4300334624088141e+01 1 0 0
3641 1214 2 5.5640000000000001e-01 1.5733773404522896e+01 -1.6390319303691891e+00 4.3601106255586641e+00 0 0 1
3298 1100 1 -1.1128000000000000e+00 2.1512038292653084e+01 1.0888373373659382e+01 2.5785146551002613e+00 0 0 0
7655 2552 2 5.5640000000000001e-01 1.4751609307821401e+01 1.3861441025419190e+01 1.1725373335530920e-02 0 0 0
1852 618 1 -1.1128000000000000e+00 2.2250025253983296e+01 1.7911961634050005e+01 2.3507342378126217e+00 0 0 0
7784 2595 2 5.5640000000000001e-01 2.1589885562780495e+01 1.5856537804462807e+01 -8.2792120926829194e-02 0 0 0
6358 2120 1 -1.1128000000000000e+00 4.7958074155665606e+00 -8.3868551457041862e-01 1.4487987940772169e+00 0 0 0
6586 2196 1 -1.1128000000000000e+00 7.7010148984749680e+00 -3.5348323679783178e-01 8.8439289833041812e-01 0 0 0
6587 2196 2 5.5640000000000001e-01 7.3710938301424402e+00 -5.8837393195004473e-01 1.7094060731448479e-02 0 0 0
10688 3563 2 5.5640000000000001e-01 3.1831559563631906e-01 1.1809143965189246e+01 2.0660635035033124e+01 0 0 0
2626 876 1 -1.1128000000000000e+00 -1.1232124526759804e+00 2.0249816398174572e+00 2.1713685015195548e+01 0 0 0
10607 3536 2 5.5640000000000001e-01 8.1068332684884830e+00 1.3750543817672387e+00 4.3216222164071505e-01 0 1 0
10606 3536 1 -1.1128000000000000e+00 8.2329381765364680e+00 2.3169142666073226e+00 3.1715629226447239e-01 0 1 0
10608 3536 2 5.5640000000000001e-01 8.9911230240146711e+00 2.5259195504958951e+00 8.6277645777987422e-01 0 1 0
1149 383 2 5.5640000000000001e-01 9.9246153235300305e+00 3.0308417870388311e+00 4.6581114815201605e+00 0 1 0
1148 383 2 5.5640000000000001e-01 8.5167334539407467e+00 2.5254404228894440e+00 4.4250318017087942e+00 0 1 0
1147 383 1 -1.1128000000000000e+00 9.0073162551021682e+00 3.2346364709150714e+00 4.8404822979077116e+00 0 1 0
7895 2632 2 5.5640000000000001e-01 1.1247151308282831e+01 -5.5112701987730972e-01 3.8393712925159731e+00 0 0 0
8023 2675 1 -1.1128000000000000e+00 1.0703921868975629e+01 2.5495061175308660e+00 1.8151072090459719e+00 1 0 0
8025 2675 2 5.5640000000000001e-01 1.0894745697121802e+01 3.4006465954195031e+00 1.4209306818467664e+00 1 0 0
3458 1153 2 5.5640000000000001e-01 -1.5649655847088544e+00 6.4804238450851486e+00 1.1761457672274815e+00 1 0 1
4523 1508 2 5.5640000000000001e-01 8.9877516539032793e+00 2.7380510165684457e+00 -1.2407775899184412e+00 0 1 1
9314 3105 2 5.5640000000000001e-01 -8.2924114758554446e-01 -1.6307994805283823e+00 -7.9708750444798437e-01 0 1 0
483 161 2 5.5640000000000001e-01 9.2430650521207287e+00 -1.2835355194798561e+00 1.1643130087753684e+00 0 0 0
8328 2776 2 5.5640000000000001e-01 1.5607901897219204e+01 -3.8154678194041769e-01 1.4535271650644876e-01 0 1 0
7894 2632 1 -1.1128000000000000e+00 1.1722483493898206e+01 -1.4588025329326548e-01 4.5646734917529921e+00 0 0 0
8326 2776 1 -1.1128000000000000e+00 1.5333007135163317e+01 3.3620486564461949e-01 7.1587392208919987e-01 0 1 0
5267 1756 2 5.5640000000000001e-01 1.4200017842078500e+01 1.2745495062717693e+00 3.5446932129666875e+00 0 1 0
2983 995 1 -1.1128000000000000e+00 1.3284051921085991e+01 2.9884315802564254e+00 3.3715574583240153e+00 0 0 0
2985 995 2 5.5640000000000001e-01 1.2492032491736561e+01 2.8151792974479788e+00 2.8627174185007558e+00 0 0 0
2984 995 2 5.5640000000000001e-01 1.2997626312381501e+01 2.9443705500339430e+00 4.2838340486264839e+00 0 0 0
5266 1756 1 -1.1128000000000000e+00 1.5021309765131601e+01 7.8603948224714415e-01 3.4893114537583489e+00 0 1 0
8024 2675 2 5.5640000000000001e-01 1.1162922642141728e+01 1.9194493397991508e+00 1.2596108588405968e+00 1 0 0
5268 1756 2 5.5640000000000001e-01 1.5238908360648626e+01 7.8731015393127279e-01 2.5571745458211215e+00 0 1 0
7941 2647 2 5.5640000000000001e-01 1.5985067683350998e+01 4.4740845863586998e-01 4.8227902815344290e+00 0 0 0
6490 2164 1 -1.1128000000000000e+00 1.3615093864454066e+01 4.0505847218037934e+00 -6.2943551770262118e-01 0 1 0
6491 2164 2 5.5640000000000001e-01 1.4267539234047112e+01 4.5850503560991855e+00 -1.7678736336929846e-01 0 1 0
482 161 2 5.5640000000000001e-01 1.0729259291629676e+01 -1.0060377865294767e+00 1.2424863229341012e+00 0 0 0
1186 396 1 -1.1128000000000000e+00 2.2069212524535576e+01 7.1181740736803452e+00 1.8187112925975942e+01 0 0 0
9489 3163 2 5.5640000000000001e-01 1.3174940101581045e+01 -1.0951395966123822e-02 5.0352937527531560e-01 0 0 0
8327 2776 2 5.5640000000000001e-01 1.5915929289277919e+01 1.0604905132507541e+00 4.8818697418018875e-01 0 1 0
9488 3163 2 5.5640000000000001e-01 1.1871483834616154e+01 1.0990842826869462e-01 -2.5691967584855568e-01 0 0 0
7939 2647 1 -1.1128000000000000e+00 1.6502218181078273e+01 1.3711698323720811e-01 5.5660960271668856e+00 0 0 0
8737 2913 1 -1.1128000000000000e+00 2.8292734648550395e+00 2.2328513447682559e+00 2.2373550297912075e+01 1 0 0
9487 3163 1 -1.1128000000000000e+00 1.2231181823519483e+01 8.7018365738229742e-02 6.2982878117139407e-01 0 0 0
53 18 2 5.5640000000000001e-01 2.0618787212773285e+01 2.3475595388313772e+00 1.8376318898685580e+00 0 1 1
54 18 2 5.5640000000000001e-01 1.9954808126808018e+01 1.5145429383142668e+00 2.9133203302859751e+00 0 1 1
7940 2647 2 5.5640000000000001e-01 1.7342550815308364e+01 5.8695742104143678e-01 5.4782697079188942e+00 0 0 0
258 86 2 5.5640000000000001e-01 -1.4114969852147459e+00 1.2620560827607607e+01 4.7471572939202407e+00 1 0 0
2704 902 1 -1.1128000000000000e+00 2.0484792103984685e+01 4.0656040318463464e+00 1.2222532250829858e+00 0 0 1
3963 1321 2 5.5640000000000001e-01 1.6981482525593808e+01 2.8741411695949513e+00 2.0151791765613125e+00 0 0 0
3961 1321 1 -1.1128000000000000e+00 1.6731846475110046e+01 3.2768227957716096e+00 2.8468991331257527e+00 0 0 0
7623 2541 2 5.5640000000000001e-01 1.8568856987138723e+01 1.9394718446540677e+00 9.1394745639868313e-01 0 1 0
3962 1321 2 5.5640000000000001e-01 1.5971118541102005e+01 2.7741318997269149e+00 3.1381441855316128e+00 0 0 0
7621 2541 1 -1.1128000000000000e+00 1.7684831308302364e+01 2.0750504871261866e+00 5.7285241049623226e-01 0 1 0
7622 2541 2 5.5640000000000001e-01 1.7774872072849853e+01 1.9728288213079592e+00 -3.7460326323035664e-01 0 1 0
5375 1792 2 5.5640000000000001e-01 5.3718982861950195e+00 2.2424727087672348e+01 4.9951278452816172e+00 1 0 1
2729 910 2 5.5640000000000001e-01 2.2326850336353939e+01 -4.3887201985577851e-01 8.6352821778426971e+00 0 0 0
52 18 1 -1.1128000000000000e+00 2.0223189908636641e+01 1.4902266662285797e+00 1.9948380037372559e+00 0 1 1
6496 2166 1 -1.1128000000000000e+00 1.7787484662125948e+01 8.3445125618567229e+00 -1.0036031979245377e+00 0 0 1
5228 1743 2 5.5640000000000001e-01 2.1513710295327620e+01 -1.0600631251440529e-01 2.5401195139408790e+00 0 0 0
3019 1007 1 -1.1128000000000000e+00 1.8473581431921247e+01 -1.2399491339713915e+00 7.3807314579091354e-01 0 1 1
10187 3396 2 5.5640000000000001e-01 2.2036921680217482e+01 1.1133205753335840e+01 1.7185914238274837e+01 0 0 0
2705 902 2 5.5640000000000001e-01 2.0287404533735391e+01 4.2143996113103919e+00 2.9752237927588276e-01 0 0 1
6410 2137 2 5.5640000000000001e-01 -8.8366925193984391e-01 -7.4760476114820573e-01 1.4865448713529627e+01 0 1 0
8778 2926 2 5.5640000000000001e-01 9.4552865854766495e+00 -1.3598437022251246e+00 1.8865222357445429e+01 0 0 0
8816 2939 2 5.5640000000000001e-01 -8.5264447714773728e-01 2.3103825089164367e+00 9.7638005363098879e-01 1 0 0
9283 3095 1 -1.1128000000000000e+00 7.9911715905056244e+00 7.6101382603268757e+00 -1.3079720392462786e+00 0 0 0
2709 903 2 5.5640000000000001e-01 -1.0748555900583194e+00 4.5421382879736703e+00 2.2692474296964518e+00 0 0 0
7287 2429 2 5.5640000000000001e-01 9.1858952091768575e-01 7.4433419978690498e+00 2.3779588749557306e+00 0 0 0
514 172 1 -1.1128000000000000e+00 9.8512534795675233e-01 6.2390148062429400e+00 3.8788901864222849e+00 0 0 1
516 172 2 5.5640000000000001e-01 5.2865642990419826e-01 6.6975145765836004e+00 4.5843282161228718e+00 0 0 1
515 172 2 5.5640000000000001e-01 2.8827724168065694e-01 5.8155839566819987e+00 3.3775540851545829e+00 0 0 1
7285 2429 1 -1.1128000000000000e+00 7.6064227429053854e-01 8.0135843173783652e+00 1.6255582539835545e+00 0 0 0
4628 1543 2 5.5640000000000001e-01 2.0815394307389075e+00 8.3494234894469006e+00 2.5485092662076925e-01 1 0 0
6552 2184 2 5.5640000000000001e-01 4.3155188217141065e+00 8.4316324866470715e+00 -2.5447964487396391e-02 0 1 1
4627 1543 1 -1.1128000000000000e+00 2.2705408371701408e+00 8.1928323872116398e+00 -6.7034446687351956e-01 1 0 0
7286 2429 2 5.5640000000000001e-01 -1.1103854571935035e-01 7.7670107130544093e+00 1.3163589418636756e+00 0 0 0
2707 903 1 -1.1128000000000000e+00 -1.2285689534980631e+00 5.4398118585235125e+00 2.5638398708577279e+00 0 0 0
3457 1153 1 -1.1128000000000000e+00 -1.5187168276608010e+00 7.1659750633539563e+00 5.0973040578863005e-01 1 0 1
2522 841 2 5.5640000000000001e-01 -4.4667764634823715e-01 7.2862614177089142e+00 -8.3866413301803544e-01 0 1 1
2400 800 2 5.5640000000000001e-01 2.7057265572855203e+00 1.4648126647060568e+01 -1.4449141512211825e+00 1 0 0
1154 385 2 5.5640000000000001e-01 4.3997529883753090e+00 5.7184736758431249e+00 -5.7639202144709567e-01 0 1 0
832 278 1 -1.1128000000000000e+00 9.5270233568039808e-01 5.9257823037001245e+00 2.1862688864910066e+01 0 0 0
3202 1068 1 -1.1128000000000000e+00 -1.0735929735825529e+00 2.2783205820235652e+00 1.7560337978036959e+01 0 1 0
4629 1543 2 5.5640000000000001e-01 1.4886853294458922e+00 7.7527228106035331e+00 -1.0038626511863611e+00 1 0 0
6950 2317 2 5.5640000000000001e-01 2.1616128328974128e+01 1.9060373717704678e+01 2.1872669187095322e+01 0 0 0
10041 3347 2 5.5640000000000001e-01 1.5908878242688470e+01 5.3141930430794959e+00 2.2320903276948840e+01 0 0 0
10179 3393 2 5.5640000000000001e-01 2.2334975758019500e+01 1.5651298956083064e+01 7.8092337382537522e+00 0 0 1
6550 2184 1 -1.1128000000000000e+00 5.1859673244006741e+00 8.6100475150076203e+00 3.3052473985888153e-01 0 1 1
1153 385 1 -1.1128000000000000e+00 4.3176943321138044e+00 5.0711530775666498e+00 -1.2767287217176997e+00 0 1 0
10027 3343 1 -1.1128000000000000e+00 6.8288301612087512e+00 7.4479704291276096e+00 3.6664510803177119e+00 0 1 0
10028 3343 2 5.5640000000000001e-01 6.2306713135875906e+00 7.1032353056062103e+00 3.0034327777895351e+00 0 1 0
6301 2101 1 -1.1128000000000000e+00 5.1757149682522483e+00 6.1785891517121696e+00 1.4575484621718391e+00 0 0 1
6303 2101 2 5.5640000000000001e-01 5.9780494922036267e+00 5.6760452871849916e+00 1.3163470437904148e+00 0 0 1
6302 2101 2 5.5640000000000001e-01 5.3261573730141549e+00 7.0048912922274003e+00 9.9839629822982134e-01 0 0 1
6206 2069 2 5.5640000000000001e-01 8.4346216312382296e+00 5.6682585699637658e+00 1.1857389164953780e+00 0 0 0
6205 2069 1 -1.1128000000000000e+00 7.5750582955416412e+00 5.2546376372774315e+00 1.1063827877786885e+00 0 0 0
6207 2069 2 5.5640000000000001e-01 7.7629436766750164e+00 4.3170412868083119e+00 1.0634761695586126e+00 0 0 0
9756 3252 2 5.5640000000000001e-01 7.6064237814654572e+00 8.3120990274517741e+00 1.8570020605095521e+00 0 0 0
9755 3252 2 5.5640000000000001e-01 9.0141655280354573e+00 8.8664085257497227e+00 1.9107838572028495e+00 0 0 0
6551 2184 2 5.5640000000000001e-01 5.7550356147731438e+00 8.6543148873351967e+00 -4.3787030310681763e-01 0 1 1
9754 3252 1 -1.1128000000000000e+00 8.1655568771101201e+00 8.9953281269578831e+00 1.4871411072868588e+00 0 0 0
9284 3095 2 5.5640000000000001e-01 8.3458599971958503e+00 7.6623717690583995e+00 -4.2044921156799142e-01 0 0 0
5663 1888 2 5.5640000000000001e-01 1.0714145582087127e+01 5.9826063075888563e+00 9.2652082618150589e-01 0 1 0
6168 2056 2 5.5640000000000001e-01 2.1401031526830089e+01 2.2424385332650878e+01 7.5225372336991896e+00 0 0 0
5662 1888 1 -1.1128000000000000e+00 1.0080454899734670e+01 6.1903222295055453e+00 1.6131935334568044e+00 0 1 0
5664 1888 2 5.5640000000000001e-01 1.0503810698679509e+01 6.8747884620436164e+00 2.1313687237808789e+00 0 1 0
3452 1151 2 5.5640000000000001e-01 8.2939741410477446e+00 1.0536535706622328e+01 6.7878784071468523e-01 0 1 0
1403 468 2 5.5640000000000001e-01 8.4723627721768331e+00 1.0225569831720719e+01 4.8433942545711961e+00 1 0 0
7783 2595 1 -1.1128000000000000e+00 2.2429215481590834e+01 1.5859968956395971e+01 3.7736351079662045e-01 0 0 0
7394 2465 2 5.5640000000000001e-01 1.4942763465103557e+01 1.8720195027332604e+01 -1.3907025629295502e+00 0 0 1
6275 2092 2 5.5640000000000001e-01 2.2116480497826227e+01 2.1644708818998737e+01 2.1498168541110939e+01 0 0 0
7646 2549 2 5.5640000000000001e-01 1.3866303516872483e+01 4.7657416918926856e+00 3.3437292865811399e+00 0 0 0
4408 1470 1 -1.1128000000000000e+00 1.0750043120158031e+01 8.6653941829857786e+00 2.6538881782064667e+00 1 0 0
4409 1470 2 5.5640000000000001e-01 1.0890685813138726e+01 8.4758084504684792e+00 3.5815235410986075e+00 1 0 0
3671 1224 2 5.5640000000000001e-01 1.4072503900505691e+01 6.3297152402432646e+00 1.4485203659876293e+00 1 1 1
3670 1224 1 -1.1128000000000000e+00 1.4216721257110766e+01 6.9086679624116609e+00 7.0002592246512796e-01 1 1 1
3672 1224 2 5.5640000000000001e-01 1.4663710442711977e+01 7.6706222550228560e+00 1.0686113605634100e+00 1 1 1
4974 1658 2 5.5640000000000001e-01 1.5688335275360263e+01 9.8299137016639015e+00 1.9764327778128585e+00 0 0 0
8753 2918 2 5.5640000000000001e-01 1.2183459188509334e+01 8.8192424171958912e+00 -7.5558108541814117e-01 0 0 1
8754 2918 2 5.5640000000000001e-01 1.2786344303268704e+01 7.5330600664139507e+00 -2.3198482203798942e-01 0 0 1
7645 2549 1 -1.1128000000000000e+00 1.4240339150611085e+01 5.6053043550325485e+00 3.0764064664921618e+00 0 0 0
8752 2918 1 -1.1128000000000000e+00 1.2053460114719449e+01 7.8709539003878302e+00 -7.4670665835751782e-01 0 0 1
4410 1470 2 5.5640000000000001e-01 1.1046939295581408e+01 9.5689546696729675e+00 2.5459053917667065e+00 1 0 0
4972 1658 1 -1.1128000000000000e+00 1.5511509920603210e+01 8.8894933947557639e+00 2.0003489176211944e+00 0 0 0
3691 1231 1 -1.1128000000000000e+00 1.2061077614831984e+01 1.0812061237438682e+01 -6.3150639164823152e-01 1 1 1
7214 2405 2 5.5640000000000001e-01 -1.1559323579722511e+00 2.0177821140505067e+01 4.2561865062765669e+00 1 0 0
4973 1658 2 5.5640000000000001e-01 1.6362108537347527e+01 8.4899122247077923e+00 2.1821348410822887e+00 0 0 0
3843 1281 2 5.5640000000000001e-01 1.7026437062262346e+01 1.1944258675059855e+01 3.2644037417411944e+00 0 0 0
7647 2549 2 5.5640000000000001e-01 1.4920420349143036e+01 5.7828245857292648e+00 3.7261795279833638e+00 0 0 0
4029 1343 2 5.5640000000000001e-01 1.4794199008059230e+01 1.1137597795569478e+01 3.4795658016539468e+00 0 0 1
4028 1343 2 5.5640000000000001e-01 1.3774140283410549e+01 1.0019561598595853e+01 3.5164941357747326e+00 0 0 1
3269 1090 2 5.5640000000000001e-01 1.2119613620867439e+01 6.9981361078587501e+00 5.1726504241482330e+00 0 0 0
3268 1090 1 -1.1128000000000000e+00 1.2026752319194737e+01 7.9360051077830445e+00 5.0052951878489429e+00 0 0 0
189 63 2 5.5640000000000001e-01 1.1827929867536083e+01 4.9902888756451480e+00 -9.8059638936208693e-01 0 0 1
2706 902 2 5.5640000000000001e-01 1.9864226436294466e+01 4.6222156487119328e+00 1.6926905668974004e+00 0 0 1
1353 451 2 5.5640000000000001e-01 1.7918031500431475e+01 4.6820990688343942e+00 2.5272069503236674e+00 0 0 0
1351 451 1 -1.1128000000000000e+00 1.8385159491245545e+01 5.4961093718116363e+00 2.3390381198846733e+00 0 0 0
8741 2914 2 5.5640000000000001e-01 1.6546810553545157e+01 5.6057910142699061e+00 -8.8619864983785446e-01 0 0 0
8742 2914 2 5.5640000000000001e-01 1.5830138087971680e+01 6.1504068180491327e+00 3.3103731778737133e-01 0 0 0
1412 471 2 5.5640000000000001e-01 1.8616174774972865e+01 8.3294299172832549e+00 2.9778426442818144e+00 0 0 1
1413 471 2 5.5640000000000001e-01 1.7931601730137675e+01 7.0302502960181119e+00 3.3457845618086495e+00 0 0 1
1411 471 1 -1.1128000000000000e+00 1.8000211924876396e+01 7.9493427224472697e+00 3.6042242146956616e+00 0 0 1
8740 2914 1 -1.1128000000000000e+00 1.6685831250178559e+01 6.1299848329460147e+00 -9.7450526201704024e-02 0 0 0
1024 342 1 -1.1128000000000000e+00 1.9425845399066322e+01 9.3806389827808694e+00 1.7147717469145651e+00 0 0 0
4895 1632 2 5.5640000000000001e-01 2.1808012485937702e+01 9.1815658289178419e+00 -9.6707702255605110e-01 0 0 1
4894 1632 1 -1.1128000000000000e+00 2.1934295796096446e+01 9.9989994916924037e+00 -1.4488281981946736e+00 0 0 1
2490 830 2 5.5640000000000001e-01 1.7551679789539410e+01 2.2162345369344916e+01 7.5044318578565017e-01 0 0 0
1026 342 2 5.5640000000000001e-01 1.9002483433854753e+01 9.9657973565917271e+00 1.0866132167974327e+00 0 0 0
1352 451 2 5.5640000000000001e-01 1.7895344070598341e+01 5.8928820676250080e+00 1.6187040854933579e+00 0 0 0
9313 3105 1 -1.1128000000000000e+00 -1.5583603335377547e+00 -1.1154468194387774e+00 -1.1420892814789507e+00 0 1 0
1626 542 2 5.5640000000000001e-01 1.7342307609561850e+01 9.9331464898832138e+00 -6.0809776203790133e-01 0 0 0
3570 1190 2 5.5640000000000001e-01 2.0594248137167995e+01 8.1343194136546320e+00 8.4824117325272441e-01 0 0 0
6498 2166 2 5.5640000000000001e-01 1.7411454178673452e+01 7.5003355714085309e+00 -7.5421000846928010e-01 0 0 1
9285 3095 2 5.5640000000000001e-01 7.5000708115554762e+00 6.7886471203289336e+00 -1.3221891707206188e+00 0 0 0
3568 1190 1 -1.1128000000000000e+00 2.1384195618857330e+01 7.7645464766197474e+00 4.5393075207687694e-01 0 0 0
3569 1190 2 5.5640000000000001e-01 2.1071811411533393e+01 7.0126505842648807e+00 -4.9356491336099984e-02 0 0 0
4487 1496 2 5.5640000000000001e-01 1.9288656532947712e+00 2.2130224530913139e+01 8.3722619412975856e+00 0 0 1
6976 2326 1 -1.1128000000000000e+00 2.0355284122939004e+01 5.6155794802646080e+00 -1.4304724462873690e+00 0 0 0
246 82 2 5.5640000000000001e-01 1.0985134194976336e+00 9.1635538909820671e+00 2.8452884229127360e+00 0 0 0
3162 1054 2 5.5640000000000001e-01 3.5272334372540488e+00 1.2503302668403254e+01 4.2270691851029740e-01 0 0 0
244 82 1 -1.1128000000000000e+00 1.6875027815270096e+00 9.7734336387009435e+00 3.2895501346081559e+00 0 0 0
3254 1085 2 5.5640000000000001e-01 2.4089569814603848e+00 1.1615921990744342e+01 2.5836382305629595e+00 0 0 1
245 82 2 5.5640000000000001e-01 1.8458060977575439e+00 9.3741024711282428e+00 4.1449468218001675e+00 0 0 0
3253 1085 1 -1.1128000000000000e+00 3.1086194094907080e+00 1.2242695583634285e+01 2.3996346341547392e+00 0 0 1
3255 1085 2 5.5640000000000001e-01 3.2544733659450538e+00 1.2690952136795103e+01 3.2327148962104211e+00 0 0 1
6803 2268 2 5.5640000000000001e-01 4.6879151545399864e+00 1.1400137658819807e+01 2.0662250412502936e+00 0 0 1
10757 3586 2 5.5640000000000001e-01 2.1274287621637789e+01 1.8864705385117233e+01 1.9635694413977809e+01 0 0 0
3160 1054 1 -1.1128000000000000e+00 3.6290577868172820e+00 1.3029829522799718e+01 -3.7015504649655062e-01 0 0 0
10019 3340 2 5.5640000000000001e-01 -7.3062466392673775e-01 1.5008841659677326e+01 2.0451887493765297e+00 1 0 0
10018 3340 1 -1.1128000000000000e+00 -2.8998272134795977e-01 1.5853654559495801e+01 2.1365927003762590e+00 1 0 0
9942 3314 2 5.5640000000000001e-01 1.5911243630603828e+01 2.1246719295891133e+01 2.1195914452079531e+01 0 0 0
4624 1542 1 -1.1128000000000000e+00 4.0196947968647088e+00 1.5524004066568942e+01 3.4797830089460380e-01 1 0 1
4625 1542 2 5.5640000000000001e-01 3.7613617247354085e+00 1.4624421947207992e+01 1.4736709137878501e-01 1 0 1
8521 2841 1 -1.1128000000000000e+00 3.1270330612499508e+00 1.4056589275724887e+01 4.8073235408622796e+00 1 0 0
1122 374 2 5.5640000000000001e-01 4.6934796933339262e+00 1.5257301791202362e+01 4.6207472508091136e+00 0 0 0
4070 1357 2 5.5640000000000001e-01 -7.4755195636544591e-01 5.0550527114693322e-01 1.1964022003171895e+01 0 0 0
2771 924 2 5.5640000000000001e-01 6.7650005890649236e+00 1.5009617141712638e+01 -7.0097333666676542e-01 0 0 1
6804 2268 2 5.5640000000000001e-01 5.7586526502513209e+00 1.0389632946428820e+01 1.7136775253635892e+00 0 0 1
6802 2268 1 -1.1128000000000000e+00 5.6369437070679034e+00 1.1295348767944537e+01 1.9984487836824414e+00 0 0 1
5310 1770 2 5.5640000000000001e-01 8.8326414005253842e+00 1.2220334965957287e+01 3.9436946082692339e+00 0 0 0
3451 1151 1 -1.1128000000000000e+00 8.5569246098533984e+00 1.1433764775838139e+01 4.7368814885581090e-01 0 1 0
3453 1151 2 5.5640000000000001e-01 8.1209340226427162e+00 1.1969118688572214e+01 1.1366642098160296e+00 0 1 0
5308 1770 1 -1.1128000000000000e+00 9.5293982416073959e+00 1.1730052527691173e+01 4.3800228308907574e+00 0 0 0
5309 1770 2 5.5640000000000001e-01 1.0211789328395321e+01 1.1639383338077410e+01 3.7149282138675366e+00 0 0 0
7558 2520 1 -1.1128000000000000e+00 7.6241375126090141e+00 1.3182155790940348e+01 2.2462122579760053e+00 0 0 0
7559 2520 2 5.5640000000000001e-01 6.8448312279116070e+00 1.2728905081714766e+01 2.5678893888010608e+00 0 0 0
7560 2520 2 5.5640000000000001e-01 7.3449769030082841e+00 1.4091156797643295e+01 2.1365959028359258e+00 0 0 0
7191 2397 2 5.5640000000000001e-01 6.6038361941172372e+00 1.5954312682967576e+01 3.3922289722876169e+00 1 0 0
7189 2397 1 -1.1128000000000000e+00 7.1109805868884113e+00 1.5951769290781982e+01 2.5804242203159289e+00 1 0 0
7190 2397 2 5.5640000000000001e-01 7.3432807172350962e+00 1.6869626830097445e+01 2.4397010232143366e+00 1 0 0
6140 2047 2 5.5640000000000001e-01 9.9749795065186575e+00 1.1569578156331835e+01 1.4882841214987828e+00 0 0 0
2770 924 1 -1.1128000000000000e+00 6.6344851022449127e+00 1.5927605450763622e+01 -4.6329009454055692e-01 0 0 1
2772 924 2 5.5640000000000001e-01 6.5934817307442586e+00 1.5924405955208453e+01 4.9302460949695348e-01 0 0 1
1120 374 1 -1.1128000000000000e+00 5.5478634074104383e+00 1.5684570188084113e+01 4.6815668664489900e+00 0 0 0
6139 2047 1 -1.1128000000000000e+00 1.0867123089682682e+01 1.1542328119963173e+01 1.8340674431239283e+00 0 0 0
6141 2047 2 5.5640000000000001e-01 1.1122876436938153e+01 1.2461514697814239e+01 1.9109772061184649e+00 0 0 0
4626 1542 2 5.5640000000000001e-01 4.7644860033444569e+00 1.5694087417425763e+01 -2.2872482794613891e-01 1 0 1
2883 961 2 5.5640000000000001e-01 7.0829346597332403e+00 1.1460001920216000e+01 7.1501690746114743e+00 0 0 0
2036 679 2 5.5640000000000001e-01 2.2059249319499092e+01 1.2284012519689449e+01 9.9822001175225878e+00 0 0 0
1624 542 1 -1.1128000000000000e+00 1.7302399956340604e+01 1.0856162937542139e+01 -3.5774427647987528e-01 0 0 0
3692 1231 2 5.5640000000000001e-01 1.1750184297388262e+01 1.1026927766654520e+01 2.4792972001371982e-01 1 1 1
3841 1281 1 -1.1128000000000000e+00 1.6286337179889617e+01 1.1732405861180988e+01 2.6955457681726882e+00 0 0 0
3842 1281 2 5.5640000000000001e-01 1.6106773533648383e+01 1.2545057142625163e+01 2.2226994370244215e+00 0 0 0
6008 2003 2 5.5640000000000001e-01 1.6175188433386662e+01 1.6558991681045942e+01 2.7052805326489446e+00 1 0 0
9102 3034 2 5.5640000000000001e-01 1.0843470139411233e+01 1.4338749273859452e+01 3.2931038267167159e+00 0 0 1
9100 3034 1 -1.1128000000000000e+00 1.1313468653267922e+01 1.4136463023409325e+01 2.4841474386423368e+00 0 0 1
1177 393 1 -1.1128000000000000e+00 1.4072166432277191e+01 1.4423311600305315e+01 2.9288713640277395e+00 0 0 0
1179 393 2 5.5640000000000001e-01 1.4054485343086698e+01 1.4708715752229097e+01 2.0153831701425915e+00 0 0 0
9101 3034 2 5.5640000000000001e-01 1.2210261510344464e+01 1.3956414997346565e+01 2.7662361603407675e+00 0 0 1
1178 393 2 5.5640000000000001e-01 1.4572549062673257e+01 1.5101552900441654e+01 3.3825615166878968e+00 0 0 0
185 62 2 5.5640000000000001e-01 1.1252068841858151e+01 1.5535313725702757e+01 1.5103144353161690e+00 0 0 0
7654 2552 1 -1.1128000000000000e+00 1.4296149711220366e+01 1.4671584347189899e+01 2.4075255607651469e-01 0 0 0
6009 2003 2 5.5640000000000001e-01 1.4781688225029416e+01 1.7148039439577449e+01 2.6498809913632160e+00 1 0 0
6007 2003 1 -1.1128000000000000e+00 1.5482451533658882e+01 1.6917776370015144e+01 3.2599140201064021e+00 1 0 0
2817 939 2 5.5640000000000001e-01 9.6956692287912052e+00 2.2022003428272569e+01 1.8938668286035998e+01 0 0 0
3860 1287 2 5.5640000000000001e-01 2.2479108107337964e+01 1.3168215690755208e+01 1.3459548953603088e+01 0 0 0
1625 542 2 5.5640000000000001e-01 1.8166638870843443e+01 1.1202619676854018e+01 -5.7975252332569660e-01 0 0 0
1025 342 2 5.5640000000000001e-01 2.0151898753114526e+01 9.8938888677056944e+00 2.0692429694289665e+00 0 0 0
5367 1789 2 5.5640000000000001e-01 2.1316550997655774e+01 1.7644413595777749e+01 1.1863827512815678e+01 0 0 0
7107 2369 2 5.5640000000000001e-01 1.7620440959586134e+01 1.4778576703504221e+01 -4.6889826211792518e-01 0 0 0
2234 745 2 5.5640000000000001e-01 1.8043782774324185e+01 1.5274432383767920e+01 1.7395232517216037e+00 0 0 1
2233 745 1 -1.1128000000000000e+00 1.8043046991322171e+01 1.5607395472000622e+01 2.6369439532740548e+00 0 0 1
1106 369 2 5.5640000000000001e-01 2.0708423723759989e+01 1.1167047845126550e+01 -4.9387660327907579e-01 0 0 1
1105 369 1 -1.1128000000000000e+00 1.9960550752195815e+01 1.1720913140065880e+01 -2.6993752856378106e-01 0 0 1
7106 2369 2 5.5640000000000001e-01 1.8889097240700394e+01 1.4219013344015963e+01 1.3879268177564419e-01 0 0 0
1107 369 2 5.5640000000000001e-01 2.0190757271726621e+01 1.2104327668244752e+01 5.7636503616402868e-01 0 0 1
2884 962 1 -1.1128000000000000e+00 2.0630187021206233e+01 1.3513528066264534e+01 1.7214623643903209e+00 0 0 1
2885 962 2 5.5640000000000001e-01 2.0659205887017670e+01 1.4089001489018493e+01 2.4858033066125156e+00 0 0 1
7105 2369 1 -1.1128000000000000e+00 1.8342865047378989e+01 1.5004749571597287e+01 1.1691637890476292e-01 0 0 0
6570 2190 2 5.5640000000000001e-01 2.2225687837918620e+01 1.5638688057559975e+01 3.7663881203578731e+00 0 0 0
6810 2270 2 5.5640000000000001e-01 1.9544350446971848e+01 1.5694116273030254e+01 -9.0563000151617135e-01 0 0 1
2118 706 2 5.5640000000000001e-01 1.8115466856907844e+01 1.4700050530267230e+01 4.2347559842813887e+00 0 0 0
6569 2190 2 5.5640000000000001e-01 2.1244015876715860e+01 1.5098252441649056e+01 4.7842967353505141e+00 0 0 0
5043 1681 2 5.5640000000000001e-01 1.9609741560471068e+01 1.2610175824952153e+01 4.7948107802264630e+00 0 0 0
6568 2190 1 -1.1128000000000000e+00 2.1368169437714791e+01 1.5220343825476224e+01 3.8430695600489182e+00 0 0 0
2886 962 2 5.5640000000000001e-01 2.1548831994072955e+01 1.3370530955684428e+01 1.4937080330758175e+00 0 0 1
1848 616 2 5.5640000000000001e-01 5.8257114359970137e+00 2.5881620538985635e+00 2.1949496711258075e+01 0 1 0
10020 3340 2 5.5640000000000001e-01 -8.9331921305906092e-01 1.6383932858946704e+01 2.6571874355629674e+00 1 0 0
7718 2573 2 5.5640000000000001e-01 1.4608906214649822e+00 1.6482803233463915e+01 1.6778670328721086e+00 0 0 1
7717 2573 1 -1.1128000000000000e+00 2.2636697476039096e+00 1.7002842029212012e+01 1.7143931046074035e+00 0 0 1
7719 2573 2 5.5640000000000001e-01 2.9065801089611396e+00 1.6486235902789328e+01 1.2285811596004517e+00 0 0 1
5567 1856 2 5.5640000000000001e-01 2.6650532433768852e+00 1.8228062234485883e+01 2.7091758709936782e+00 0 0 1
5568 1856 2 5.5640000000000001e-01 2.5622771330751091e+00 1.9683214114585123e+01 3.1139694132354139e+00 0 0 1
5566 1856 1 -1.1128000000000000e+00 2.9424981834788726e+00 1.8847379533298039e+01 3.3842308381078379e+00 0 0 1