LAMMPS data file via write_data, version 31 Mar 2017, timestep = 150000

10000 atoms
4 atom types
9500 bonds
4 bond types
18000 angles
6 angle types
22500 dihedrals
6 dihedral types

1.0834882343989889e+01 5.9165117656010395e+01 xlo xhi
1.0834882343989889e+01 5.9165117656010395e+01 ylo yhi
1.0834882343989889e+01 5.9165117656010395e+01 zlo zhi

Masses

1 12.011
2 1.0079
3 12.011
4 1.0079

Pair Coeffs # lj/cut/coul/long

1 0.066 3.5
2 0.03 2.5
3 0.066 3.5
4 0.03 2.5

Bond Coeffs # harmonic

1 268 1.529
2 340 1.09
3 268 1.529
4 340 1.09

Angle Coeffs # harmonic

1 33 107.8
2 37.5 110.7
3 58.35 112.7
4 33 107.8
5 37.5 110.7
6 58.35 112.7

Dihedral Coeffs # opls

1 0 0 0.318 0
2 0 0 0.366 0
3 1.74 -0.157 0.279 0
4 0 0 0.318 0
5 0 0 0.366 0
6 1.74 -0.157 0.279 0

Atoms # full

8109 406 2 5.9999999999999998e-02 1.6302775650173253e+01 1.7434467154370907e+01 1.8253412671378332e+01 0 0 0
8104 406 2 5.9999999999999998e-02 1.8417956030039736e+01 1.6267841930628698e+01 1.6628184121925301e+01 0 0 0
8105 406 1 -1.2000000000000000e-01 1.6336486313319362e+01 1.6700968117149415e+01 1.6226713819806164e+01 0 0 0
8101 406 1 -1.2000000000000000e-01 1.7484881492075559e+01 1.5668849695862590e+01 1.6422827490445478e+01 0 0 0
8107 406 2 5.9999999999999998e-02 1.5466231082181356e+01 1.6102989400179439e+01 1.6411332119811252e+01 0 0 0
8106 406 2 5.9999999999999998e-02 1.6267801418678115e+01 1.7094623818576942e+01 1.5276119546591787e+01 0 0 0
8119 406 2 5.9999999999999998e-02 1.7649406747013781e+01 1.5152259239280514e+01 1.4267963281964008e+01 0 0 0
856 43 2 5.9999999999999998e-02 2.2296848388863385e+01 1.8987009314481991e+01 1.1530201024602555e+01 0 0 0
7967 399 2 5.9999999999999998e-02 1.3474421968876509e+01 1.4376506391154003e+01 1.3259921855966795e+01 0 0 1
8108 406 1 -1.2000000000000000e-01 1.6189304633919232e+01 1.7845516950720025e+01 1.7251505881096495e+01 0 0 0
8110 406 2 5.9999999999999998e-02 1.7116380065284055e+01 1.8409521299658604e+01 1.7156493755424219e+01 0 0 0
8111 406 1 -1.2000000000000000e-01 1.5023857818285283e+01 1.8826672544797113e+01 1.7044196448741829e+01 0 0 0
8114 406 2 5.9999999999999998e-02 1.5125568152095155e+01 1.9447313593323308e+01 1.6138499843547809e+01 0 0 0
4246 213 2 5.9999999999999998e-02 2.8475991031375901e+01 2.7098307430367424e+01 1.1838606382891177e+01 0 0 1
7962 399 1 -1.7999999999999999e-01 1.2147689880301968e+01 1.6647163752803834e+01 1.3529883351874604e+01 0 0 1
7978 399 2 5.9999999999999998e-02 1.2953718605972776e+01 1.6544011042587130e+01 1.2741922000257572e+01 0 0 1
7965 399 1 -1.2000000000000000e-01 1.2640453622758239e+01 1.4215885762512054e+01 1.3952479856492287e+01 0 0 1
7961 399 1 -1.2000000000000000e-01 1.2526508947113863e+01 1.5618843590550782e+01 1.4590342121505710e+01 0 0 1
4241 213 1 -1.2000000000000000e-01 3.0581939835167478e+01 2.7619414741812339e+01 1.1347193619611810e+01 0 0 1
7964 399 2 5.9999999999999998e-02 1.1710201287764129e+01 1.5541888837820027e+01 1.5333768994720263e+01 0 0 1
8112 406 2 5.9999999999999998e-02 1.4142716277138073e+01 1.8250766467535009e+01 1.6903263108524534e+01 0 0 0
5816 291 2 5.9999999999999998e-02 1.9109768584863296e+01 1.8029088443951444e+01 1.1624972712187656e+01 0 -1 1
7025 352 1 -1.2000000000000000e-01 1.9524121645029950e+01 1.1145406018960427e+01 1.2653258543362108e+01 0 0 0
7963 399 2 5.9999999999999998e-02 1.3404308084582659e+01 1.5895239849217170e+01 1.5144583164132165e+01 0 0 1
5813 291 1 -1.7999999999999999e-01 1.8300834608139517e+01 1.7378870301826154e+01 1.1969523253003617e+01 0 -1 1
5815 291 2 5.9999999999999998e-02 1.8878257657771631e+01 1.6568203000039958e+01 1.2485529938144026e+01 0 -1 1
7980 399 2 5.9999999999999998e-02 1.2116763271516341e+01 1.7661391500255672e+01 1.3971182750525312e+01 0 0 1
7499 375 2 5.9999999999999998e-02 1.1028599834154441e+01 1.8700259816610128e+01 1.8431882295970706e+01 0 1 1
7030 352 2 5.9999999999999998e-02 1.8161506441735156e+01 1.2641255951774122e+01 1.3416926543455059e+01 0 0 0
7029 352 2 5.9999999999999998e-02 1.8341421219705154e+01 1.1161211075493217e+01 1.4382200355432907e+01 0 0 0
7498 375 2 5.9999999999999998e-02 1.1227719023678830e+01 1.9231995290755886e+01 1.6736541668534727e+01 0 1 1
5825 292 1 -1.2000000000000000e-01 2.8325638948153923e+01 1.1055271114069496e+01 3.2296347463863384e+01 0 0 0
5811 291 1 -1.2000000000000000e-01 1.7354671944340289e+01 1.6981799147751602e+01 1.0871803300339815e+01 0 -1 1
7028 352 1 -1.2000000000000000e-01 1.8249087502196829e+01 1.1592025603786933e+01 1.3419294034681410e+01 0 0 0
578 29 2 5.9999999999999998e-02 1.1812102847144036e+01 1.8928136609941038e+01 2.7133340553529806e+01 0 2 0
5817 291 2 5.9999999999999998e-02 1.7627408811616011e+01 1.7806749444624849e+01 1.2752940500356228e+01 0 -1 1
4942 248 1 -1.7999999999999999e-01 1.3849987403414076e+01 1.5127950148737302e+01 1.9045154654981943e+01 0 0 0
5759 288 2 5.9999999999999998e-02 2.2321306256326732e+01 3.4585011093042809e+01 2.5049405374354993e+01 1 0 0
4958 248 2 5.9999999999999998e-02 1.3712145933060324e+01 1.5811563420118961e+01 1.8271415026959517e+01 0 0 0
7500 375 2 5.9999999999999998e-02 1.1445085180711278e+01 1.7513445565803757e+01 1.7164098577295270e+01 0 1 1
9963 499 2 5.9999999999999998e-02 1.5017698540041625e+01 2.0483467259884499e+01 1.3456386063298478e+01 0 0 2
8103 406 2 5.9999999999999998e-02 1.7409427308841011e+01 1.5161695198715414e+01 1.7364033744413867e+01 0 0 0
8120 406 2 5.9999999999999998e-02 1.8485837030621852e+01 1.4034377769997613e+01 1.5307767052535654e+01 0 0 0
8102 406 1 -1.7999999999999999e-01 1.7596224841869589e+01 1.4611510961547912e+01 1.5249966032365922e+01 0 0 0
4959 248 2 5.9999999999999998e-02 1.4929226202723029e+01 1.4870294805115936e+01 1.9199637111353340e+01 0 0 0
8118 406 2 5.9999999999999998e-02 1.6674444769392423e+01 1.4041053157190081e+01 1.5151123235528678e+01 0 0 0
7038 352 2 5.9999999999999998e-02 2.2051901311532678e+01 1.2089315122503429e+01 1.1548651863858511e+01 0 0 0
4960 248 2 5.9999999999999998e-02 1.3337906501862665e+01 1.4215697790577043e+01 1.8762596670531678e+01 0 0 0
3767 189 2 5.9999999999999998e-02 3.4995290200844110e+01 2.2154409552037972e+01 1.1429987080539476e+01 0 -1 1
5812 291 2 5.9999999999999998e-02 1.6578123756716963e+01 1.6377757100879357e+01 1.1292062701689794e+01 0 -1 1
858 43 2 5.9999999999999998e-02 1.9526887165875323e+01 1.9515324214367908e+01 1.6117590515042899e+01 0 0 0
841 43 1 -1.2000000000000000e-01 1.8845582146692699e+01 2.0886143976029885e+01 1.4514214317632577e+01 0 0 0
843 43 2 5.9999999999999998e-02 1.8483415476510753e+01 2.0222588060966363e+01 1.3742621373210298e+01 0 0 0
7666 384 2 5.9999999999999998e-02 1.5688729501553418e+01 1.1335248999946751e+01 3.0100212974253949e+01 0 1 0
844 43 2 5.9999999999999998e-02 1.8188821021774057e+01 2.1754407286766572e+01 1.4451929181345692e+01 0 0 0
7023 352 2 5.9999999999999998e-02 2.0924877160699936e+01 1.1131607311644871e+01 1.4339785963760743e+01 0 0 0
860 43 2 5.9999999999999998e-02 1.7839588424544417e+01 1.9899421923888504e+01 1.5999121494764982e+01 0 0 0
842 43 1 -1.7999999999999999e-01 1.8789396343196248e+01 2.0289828159526884e+01 1.5861377258946618e+01 0 0 0
859 43 2 5.9999999999999998e-02 1.8992735546829515e+01 2.1120050032451708e+01 1.6548093853689764e+01 0 0 0
940 47 2 5.9999999999999998e-02 2.5553968221889789e+01 1.4483407250691775e+01 1.5539516667583190e+01 0 1 0
925 47 1 -1.2000000000000000e-01 2.4015620173593170e+01 1.5152087068252859e+01 1.3454222790579792e+01 0 1 0
926 47 2 5.9999999999999998e-02 2.4738164291617725e+01 1.6018690279726954e+01 1.3346349991045170e+01 0 1 0
927 47 2 5.9999999999999998e-02 2.4770997630191218e+01 1.4410717328749808e+01 1.3182748312532620e+01 0 1 0
921 47 1 -1.2000000000000000e-01 2.3561067224093065e+01 1.4789569827361081e+01 1.4934595024560579e+01 0 1 0
938 47 2 5.9999999999999998e-02 2.4970347709023635e+01 1.5828346089677865e+01 1.6413588610538085e+01 0 1 0
922 47 1 -1.7999999999999999e-01 2.4648765342000225e+01 1.4857586767523337e+01 1.5973309135580180e+01 0 1 0
923 47 2 5.9999999999999998e-02 2.2985476474474584e+01 1.3884969064225894e+01 1.4971292361228061e+01 0 1 0
924 47 2 5.9999999999999998e-02 2.2866305825410549e+01 1.5508343712593808e+01 1.5283357474381145e+01 0 1 0
939 47 2 5.9999999999999998e-02 2.4344171009643595e+01 1.4261281040897174e+01 1.6847025115170137e+01 0 1 0
850 43 2 5.9999999999999998e-02 2.0631543463474024e+01 1.9105462655314494e+01 1.3462314457958229e+01 0 0 0
928 47 1 -1.2000000000000000e-01 2.2929409405589460e+01 1.5317624423959620e+01 1.2326517997420837e+01 0 1 0
930 47 2 5.9999999999999998e-02 2.2262600210730234e+01 1.6084166810311501e+01 1.2678028514023850e+01 0 1 0
1385 70 1 -1.2000000000000000e-01 3.4087273398945399e+01 3.0979960578758210e+01 2.1767056939579550e+01 1 0 2
929 47 2 5.9999999999999998e-02 2.2381770703452553e+01 1.4386306181439398e+01 1.2314372861519907e+01 0 1 0
3092 155 2 5.9999999999999998e-02 2.8337364303305669e+01 1.2846700561945802e+01 1.9994497703492648e+01 0 1 0
3690 185 2 5.9999999999999998e-02 2.7878519922549803e+01 1.2037339168329048e+01 1.3402795656672245e+01 0 1 0
4055 203 2 5.9999999999999998e-02 2.7241019928424489e+01 3.2851221202156950e+01 1.6796324423489626e+01 0 0 0
7024 352 2 5.9999999999999998e-02 2.0886888422547305e+01 1.2677740009367415e+01 1.3730986129385261e+01 0 0 0
6123 307 2 5.9999999999999998e-02 1.3366319063400086e+01 2.3259904447389602e+01 3.1844067906260030e+01 1 0 0
8080 404 2 5.9999999999999998e-02 2.5212937071680045e+01 1.4714725725831999e+01 1.8847424058869990e+01 0 2 0
8065 404 1 -1.2000000000000000e-01 2.4782176399127835e+01 1.7412396245263604e+01 1.9546172620095419e+01 0 2 0
8066 404 2 5.9999999999999998e-02 2.5591108883061921e+01 1.7799424953988009e+01 2.0134460934614140e+01 0 2 0
8069 404 2 5.9999999999999998e-02 2.4267359918356114e+01 1.9275898893895317e+01 1.8808720167562882e+01 0 2 0
8067 404 2 5.9999999999999998e-02 2.5190143305929027e+01 1.7083494277528835e+01 1.8592576825608123e+01 0 2 0
3675 184 2 5.9999999999999998e-02 2.8744663126228570e+01 1.8209679394900892e+01 1.8316977391519202e+01 -1 0 0
7021 352 1 -1.2000000000000000e-01 2.0823386151922477e+01 1.1661672351691649e+01 1.3333318534642348e+01 0 0 0
1932 97 2 5.9999999999999998e-02 1.0896966381779038e+01 2.5735402833725054e+01 3.4533134729810172e+01 0 -1 0
8122 407 1 -1.7999999999999999e-01 1.9145351960157946e+01 3.2709554018453915e+01 1.1746501701899284e+01 0 0 0
3091 155 1 -1.2000000000000000e-01 2.8463500136698400e+01 1.2847718873881767e+01 1.8903225874026099e+01 0 1 0
3097 155 2 5.9999999999999998e-02 2.9359422597964482e+01 1.4888859944187697e+01 1.8827699177799094e+01 0 1 0
3661 184 1 -1.2000000000000000e-01 2.8193390804679332e+01 1.5758154950710395e+01 1.3907612916939854e+01 -1 0 0
3663 184 2 5.9999999999999998e-02 2.7095119935637555e+01 1.5845551707777824e+01 1.4074211778935680e+01 -1 0 0
3679 184 2 5.9999999999999998e-02 2.8116220794266248e+01 1.4144006946062930e+01 1.2353050271071504e+01 -1 0 0
3664 184 2 5.9999999999999998e-02 2.8542954093686912e+01 1.4994399917317246e+01 1.4630333830829734e+01 -1 0 0
3093 155 1 -1.7999999999999999e-01 2.9586586080119901e+01 1.3881889914705416e+01 1.8441319347163958e+01 0 1 0
3096 155 2 5.9999999999999998e-02 2.9704672329616301e+01 1.3846128192636804e+01 1.7363477316464952e+01 0 1 0
3669 184 2 5.9999999999999998e-02 2.7417013988259765e+01 1.8209486888266859e+01 1.5375983805283665e+01 -1 0 0
733 37 1 -1.7999999999999999e-01 2.2914383761113630e+01 1.1794064903465047e+01 1.8770496662701969e+01 0 1 0
3094 155 2 5.9999999999999998e-02 2.7546473865003371e+01 1.3235634912147040e+01 1.8558838877410544e+01 0 1 0
3670 184 2 5.9999999999999998e-02 2.8183724414206651e+01 1.6768180708480344e+01 1.6245891139344071e+01 -1 0 0
3088 155 1 -1.2000000000000000e-01 2.8483855702393935e+01 1.1531169219556228e+01 1.8242501069684476e+01 0 1 0
3668 184 1 -1.2000000000000000e-01 2.8402446751584989e+01 1.7643287273676123e+01 1.5643030893205877e+01 -1 0 0
3684 185 2 5.9999999999999998e-02 3.0094147765333503e+01 1.1831046506732449e+01 1.1950577373945352e+01 0 1 0
3662 184 1 -1.7999999999999999e-01 2.8474795336063657e+01 1.5192967667757546e+01 1.2508314408749698e+01 -1 0 0
3680 184 2 5.9999999999999998e-02 2.7884135763068798e+01 1.5842892814323633e+01 1.1812469817994208e+01 -1 0 0
3667 184 2 5.9999999999999998e-02 2.8477438704606126e+01 1.7780904537851761e+01 1.3401135018330219e+01 -1 0 0
3665 184 1 -1.2000000000000000e-01 2.8705319705619271e+01 1.7136800448779184e+01 1.4234409100755517e+01 -1 0 0
9519 476 2 5.9999999999999998e-02 3.2843334021782965e+01 1.5106701664679061e+01 1.4334451807788069e+01 0 0 1
7482 375 1 -1.7999999999999999e-01 1.0873293760631194e+01 1.8400777853026216e+01 1.7396136086858299e+01 0 1 1
7380 369 2 5.9999999999999998e-02 1.0902207033406867e+01 2.4812405798868355e+01 2.0592540148236914e+01 1 1 1
4518 226 2 5.9999999999999998e-02 3.3659600814968044e+01 1.9098833056474362e+01 1.8378916513150465e+01 0 -1 1
3678 184 2 5.9999999999999998e-02 2.9483357637420418e+01 1.5151305722506132e+01 1.2242341933409170e+01 -1 0 0
9507 476 2 5.9999999999999998e-02 3.4543144587028429e+01 1.2821160016360073e+01 1.4033511296290559e+01 0 0 1
3700 185 2 5.9999999999999998e-02 3.2482100427533467e+01 1.1455708943264492e+01 1.2180369567396417e+01 0 1 0
4666 234 2 5.9999999999999998e-02 3.1616427691849868e+01 1.2438583104242172e+01 1.7136980852677770e+01 1 0 1
9501 476 1 -1.2000000000000000e-01 3.4164596759220295e+01 1.4481805902619330e+01 1.2794192172760297e+01 0 0 1
3666 184 2 5.9999999999999998e-02 2.9800047019397638e+01 1.7059156949794755e+01 1.4268971564854050e+01 -1 0 0
9518 476 2 5.9999999999999998e-02 3.2159117760363628e+01 1.3816620878687015e+01 1.3287968018547916e+01 0 0 1
9502 476 1 -1.7999999999999999e-01 3.2733859451969380e+01 1.4754393680659486e+01 1.3304679179579848e+01 0 0 1
4502 226 1 -1.7999999999999999e-01 3.2931415081318960e+01 1.8377706902115765e+01 1.8746238615699262e+01 0 -1 1
4519 226 2 5.9999999999999998e-02 3.2532736053013423e+01 1.7992007560714558e+01 1.7797398566450902e+01 0 -1 1
9503 476 2 5.9999999999999998e-02 3.4100221504770658e+01 1.3944019172232270e+01 1.1857338795540597e+01 0 0 1
4053 203 1 -1.7999999999999999e-01 2.6382382364644933e+01 3.2287563890170503e+01 1.7061739216445595e+01 0 0 0
3689 185 2 5.9999999999999998e-02 2.8634400881231407e+01 1.1535339732276823e+01 1.4942837348880852e+01 0 1 0
3671 184 1 -1.2000000000000000e-01 2.9398819513123247e+01 1.8648345227159517e+01 1.6333307619245993e+01 -1 0 0
3672 184 2 5.9999999999999998e-02 2.9387320366121404e+01 1.9570820581242181e+01 1.5739508416436502e+01 -1 0 0
9520 476 2 5.9999999999999998e-02 3.2241000314921777e+01 1.5612391975401550e+01 1.2792767623328166e+01 0 0 1
3674 184 2 5.9999999999999998e-02 3.0402280103324927e+01 1.8171543310560583e+01 1.6393586015412499e+01 -1 0 0
3737 187 2 5.9999999999999998e-02 3.3928984456979983e+01 2.6500892346192334e+01 1.1265642671521666e+01 1 0 2
23 2 2 5.9999999999999998e-02 2.5478041204206377e+01 2.1035063368865181e+01 1.1813677440466900e+01 0 1 0
3681 185 1 -1.2000000000000000e-01 3.0454951830424111e+01 1.1462629331340016e+01 1.2899231153350058e+01 0 1 0
3683 185 2 5.9999999999999998e-02 3.0506715368010358e+01 1.2167645228224430e+01 1.3654460215288015e+01 0 1 0
8140 407 2 5.9999999999999998e-02 1.9444740775299021e+01 3.3755223993475724e+01 1.1591027470526091e+01 0 0 0
736 37 2 5.9999999999999998e-02 2.2462445876321016e+01 1.1457730859790310e+01 1.7855296066979548e+01 0 1 0
4637 232 2 5.9999999999999998e-02 1.0876067259185788e+01 3.3676196274311920e+01 1.4572266641219697e+01 0 0 1
4052 203 2 5.9999999999999998e-02 2.5101350766359047e+01 3.4097345665596762e+01 1.7632650704042895e+01 0 0 0
4663 234 2 5.9999999999999998e-02 3.4257614314862792e+01 1.2490292072884255e+01 1.7278719980935762e+01 1 0 1
3673 184 1 -1.7999999999999999e-01 2.8923723800303986e+01 1.9059973614383434e+01 1.7647738691959514e+01 -1 0 0
6139 307 2 5.9999999999999998e-02 1.1328692321035538e+01 2.4260339828233903e+01 3.2759812224837717e+01 1 0 0
7640 382 2 5.9999999999999998e-02 1.2860264383682210e+01 3.0024788932155975e+01 1.3534028278080246e+01 0 0 1
9978 499 2 5.9999999999999998e-02 1.3367317242351991e+01 2.0886198225357262e+01 1.5170398528186986e+01 0 0 2
9979 499 2 5.9999999999999998e-02 1.3669500036933483e+01 2.2361751854042478e+01 1.4236219141720053e+01 0 0 2
9962 499 1 -1.7999999999999999e-01 1.3241351541220368e+01 2.1337216825510481e+01 1.4218062028083596e+01 0 0 2
8113 406 1 -1.7999999999999999e-01 1.4859673975196152e+01 1.9702056736050380e+01 1.8243293747907440e+01 0 0 0
8117 406 2 5.9999999999999998e-02 1.4745672959084837e+01 1.9194027401061405e+01 1.9162705018190202e+01 0 0 0
8116 406 2 5.9999999999999998e-02 1.3935073290237346e+01 2.0251646819176877e+01 1.8081421596726365e+01 0 0 0
8115 406 2 5.9999999999999998e-02 1.5694045088689673e+01 2.0417800166949892e+01 1.8341005329542824e+01 0 0 0
7224 362 2 5.9999999999999998e-02 1.2466587247087883e+01 2.5873269587187224e+01 1.7953839435795846e+01 0 0 1
7231 362 1 -1.2000000000000000e-01 1.4749662233057181e+01 2.4980413010384318e+01 1.6269598577886828e+01 0 0 1
7234 362 2 5.9999999999999998e-02 1.3718074655737155e+01 2.4460877319524545e+01 1.6334917148157196e+01 0 0 1
7228 362 1 -1.2000000000000000e-01 1.5213314270620678e+01 2.5446182397012961e+01 1.7646302357291283e+01 0 0 1
7221 362 1 -1.2000000000000000e-01 1.3028641149462324e+01 2.6229034869551047e+01 1.8810580008233249e+01 0 0 1
7223 362 2 5.9999999999999998e-02 1.2970855993231453e+01 2.5393220530272146e+01 1.9506307962308341e+01 0 0 1
7227 362 2 5.9999999999999998e-02 1.4846714983324544e+01 2.6997784975963906e+01 1.9109818323680997e+01 0 0 1
7225 362 1 -1.2000000000000000e-01 1.4355506068673295e+01 2.6554702499172876e+01 1.8220375519575832e+01 0 0 1
7226 362 2 5.9999999999999998e-02 1.4316897101671149e+01 2.7374782801083278e+01 1.7526084109716241e+01 0 0 1
7232 362 2 5.9999999999999998e-02 1.4596088095865969e+01 2.5871175830270523e+01 1.5691975415655371e+01 0 0 1
7229 362 2 5.9999999999999998e-02 1.6247324266593740e+01 2.5900004771869931e+01 1.7669178515996471e+01 0 0 1
7230 362 2 5.9999999999999998e-02 1.5262539928226666e+01 2.4617991033599111e+01 1.8355804575405820e+01 0 0 1
7237 362 2 5.9999999999999998e-02 1.6019944192307101e+01 2.3210664987407032e+01 1.6468218246177109e+01 0 0 1
7239 362 2 5.9999999999999998e-02 1.1706217509849491e+01 2.7814439570732532e+01 1.8696861525206550e+01 0 0 1
7238 362 2 5.9999999999999998e-02 1.3013997775124425e+01 2.8193442276092927e+01 1.9917185169982140e+01 0 0 1
7222 362 1 -1.7999999999999999e-01 1.2284121621537320e+01 2.7458796863948269e+01 1.9498097883236269e+01 0 0 1
7240 362 2 5.9999999999999998e-02 1.1627573497433174e+01 2.7156499954800783e+01 2.0356966252061568e+01 0 0 1
98 5 2 5.9999999999999998e-02 1.6979445178312957e+01 2.2082506445914227e+01 1.1749824569861241e+01 1 0 1
99 5 2 5.9999999999999998e-02 1.8592290448579163e+01 2.2713020194645999e+01 1.1119627644712811e+01 1 0 1
9961 499 1 -1.2000000000000000e-01 1.4008333929112510e+01 2.0444633650037609e+01 1.3211930534824429e+01 0 0 2
9980 499 2 5.9999999999999998e-02 1.2184058355370237e+01 2.1444590164065918e+01 1.3941823587883107e+01 0 0 2
9709 486 2 5.9999999999999998e-02 1.1269601005913156e+01 2.4755202552126029e+01 1.2949286816401562e+01 0 0 1
83 5 2 5.9999999999999998e-02 1.8042332633808538e+01 2.0253251930728521e+01 1.1005119728895185e+01 1 0 1
7035 352 2 5.9999999999999998e-02 1.6721835725885185e+01 1.2690766254501389e+01 1.1454750724374335e+01 0 0 0
849 43 2 5.9999999999999998e-02 2.1208584045420956e+01 1.9461432599251758e+01 1.4957275776953512e+01 0 0 0
848 43 1 -1.2000000000000000e-01 2.1097280137473824e+01 1.9909524642269187e+01 1.4029934440288432e+01 0 0 0
852 43 2 5.9999999999999998e-02 2.2935510338106766e+01 1.9133688782979348e+01 1.3805785943620151e+01 0 0 0
851 43 1 -1.2000000000000000e-01 2.2527217133491472e+01 2.0036703319613345e+01 1.3462183717806996e+01 0 0 0
845 43 1 -1.2000000000000000e-01 2.0290631557433560e+01 2.1196915444472012e+01 1.4141576190958130e+01 0 0 0
847 43 2 5.9999999999999998e-02 2.0823683676829518e+01 2.1904185728439479e+01 1.4813076951028183e+01 0 0 0
846 43 2 5.9999999999999998e-02 2.0311654198676592e+01 2.1705077890697833e+01 1.3142928035928822e+01 0 0 0
39 2 2 5.9999999999999998e-02 2.6704585202354064e+01 2.0063673590525596e+01 1.3783325527711058e+01 0 1 0
7233 362 1 -1.7999999999999999e-01 1.5797303777328889e+01 2.4015124501316755e+01 1.5791224181746461e+01 0 0 1
7235 362 2 5.9999999999999998e-02 1.5408245684804035e+01 2.3478659022864917e+01 1.5000257804840762e+01 0 0 1
7236 362 2 5.9999999999999998e-02 1.6706654323307831e+01 2.4507532945450563e+01 1.5561416149216836e+01 0 0 1
7039 352 2 5.9999999999999998e-02 2.2853156911539216e+01 1.1453587555598265e+01 1.3164160462162746e+01 0 0 0
26 2 2 5.9999999999999998e-02 2.7368843372780436e+01 2.3418206926157648e+01 1.2130814137894472e+01 0 1 0
21 2 1 -1.2000000000000000e-01 2.6289282429651443e+01 2.1640632126258254e+01 1.2348259923308602e+01 0 1 0
854 43 2 5.9999999999999998e-02 2.3063645223187571e+01 2.0908514569542518e+01 1.3744705929230292e+01 0 0 0
6121 307 1 -1.2000000000000000e-01 1.2607660329051896e+01 2.3665759935013597e+01 3.1196546873013656e+01 1 0 0
563 29 2 5.9999999999999998e-02 1.1123193138174074e+01 2.0263241513165255e+01 2.5342991495174317e+01 0 2 0
853 43 1 -1.7999999999999999e-01 2.2608292709462162e+01 1.9961634691328989e+01 1.1960430359524121e+01 0 0 0
3887 195 2 5.9999999999999998e-02 1.7621687350903077e+01 2.6371487275954699e+01 1.1142611148630056e+01 1 1 1
7577 379 2 5.9999999999999998e-02 3.1018235325446096e+01 2.1100032349190613e+01 1.0973512940403793e+01 -1 0 1
857 43 2 5.9999999999999998e-02 2.2041673244355238e+01 2.0738059756279029e+01 1.1455495110699310e+01 0 0 0
3881 195 1 -1.2000000000000000e-01 1.9549624916304005e+01 2.5703864919176404e+01 1.1842584911297928e+01 1 1 1
3882 195 1 -1.7999999999999999e-01 1.9010339776203367e+01 2.5469995877304314e+01 1.3245418484969722e+01 1 1 1
3899 195 2 5.9999999999999998e-02 1.8521906335094375e+01 2.4510653988476687e+01 1.3223394150239596e+01 1 1 1
1097 55 2 5.9999999999999998e-02 2.4031335192242132e+01 1.9936939219464037e+01 1.6235165443566345e+01 0 0 1
1096 55 2 5.9999999999999998e-02 2.5152577884509363e+01 2.0574480242099526e+01 1.7463265117010771e+01 0 0 1
1093 55 1 -1.7999999999999999e-01 2.4891077096155691e+01 2.0645763329143438e+01 1.6409462721136805e+01 0 0 1
1095 55 2 5.9999999999999998e-02 2.5830822438695286e+01 2.0365564814073327e+01 1.5886105495389824e+01 0 0 1
1091 55 1 -1.2000000000000000e-01 2.4331641020417134e+01 2.2046076787507964e+01 1.6198161930742874e+01 0 0 1
1094 55 2 5.9999999999999998e-02 2.4300031349041451e+01 2.2154547383581516e+01 1.5151119018045950e+01 0 0 1
1090 55 2 5.9999999999999998e-02 2.2383579827771115e+01 2.1460898410237050e+01 1.6474537455878032e+01 0 0 1
1088 55 1 -1.2000000000000000e-01 2.2979626948254719e+01 2.2230377176405288e+01 1.6819935263114846e+01 0 0 1
1085 55 1 -1.2000000000000000e-01 2.2373343692988289e+01 2.3602969906430783e+01 1.6505096422923124e+01 0 0 1
1092 55 2 5.9999999999999998e-02 2.4998659511208370e+01 2.2836315445178528e+01 1.6508572100356744e+01 0 0 1
1089 55 2 5.9999999999999998e-02 2.3089385021051729e+01 2.2010945976261709e+01 1.7888802818589564e+01 0 0 1
3900 195 2 5.9999999999999998e-02 1.9888042114077791e+01 2.5510690956625535e+01 1.3990250181915300e+01 1 1 1
1086 55 2 5.9999999999999998e-02 2.2250827225447853e+01 2.3682729473184821e+01 1.5419943878152317e+01 0 0 1
1081 55 1 -1.2000000000000000e-01 2.0965150380041457e+01 2.3698256943580809e+01 1.7192697745401947e+01 0 0 1
1084 55 2 5.9999999999999998e-02 2.0557430307909307e+01 2.4685121527456637e+01 1.6998817172024818e+01 0 0 1
1099 55 2 5.9999999999999998e-02 2.1209091500185522e+01 2.2360211107007025e+01 1.8858017146507684e+01 0 0 1
1083 55 2 5.9999999999999998e-02 2.0243498163707027e+01 2.3105415250600707e+01 1.6657901126862448e+01 0 0 1
3898 195 2 5.9999999999999998e-02 1.8316514700417024e+01 2.6227206197627829e+01 1.3611987375952801e+01 1 1 1
24 2 2 5.9999999999999998e-02 2.5839904314058472e+01 2.2145894756844079e+01 1.3200671459272170e+01 0 1 0
7679 384 2 5.9999999999999998e-02 1.7221886813581762e+01 1.2618921997733384e+01 2.6859412940872158e+01 0 1 0
22 2 1 -1.7999999999999999e-01 2.7214927856590148e+01 2.0513442074790667e+01 1.2873990213315398e+01 0 1 0
9957 498 2 5.9999999999999998e-02 1.7976314178802070e+01 2.6683332734540379e+01 1.9083582824788202e+01 0 0 0
2619 131 2 5.9999999999999998e-02 2.6830426008125684e+01 2.4904290227928147e+01 1.4281524582499511e+01 1 0 1
7970 399 2 5.9999999999999998e-02 1.2443226183638160e+01 1.2907811715497452e+01 1.5737864486172523e+01 0 0 1
9997 500 2 5.9999999999999998e-02 2.1061308701764911e+01 1.2331856701180726e+01 2.4770646613236963e+01 0 2 1
2066 104 2 5.9999999999999998e-02 3.1622899213488218e+01 3.4670451231675301e+01 1.4636703163561350e+01 0 -1 -1
2603 131 2 5.9999999999999998e-02 2.4418262588452691e+01 2.5417538445131633e+01 1.4358494509024686e+01 1 0 1
2602 131 1 -1.7999999999999999e-01 2.6351162384264327e+01 2.5677156770960039e+01 1.4905145147306600e+01 1 0 1
2618 131 2 5.9999999999999998e-02 2.6157444168952125e+01 2.5181069260671208e+01 1.5865477091409801e+01 1 0 1
1087 55 2 5.9999999999999998e-02 2.2946305772693350e+01 2.4455190360807734e+01 1.6906309658783659e+01 0 0 1
2193 110 1 -1.7999999999999999e-01 1.2981852964383251e+01 1.1240374178812599e+01 2.0878635154943289e+01 1 1 1
6124 307 2 5.9999999999999998e-02 1.2473645297564353e+01 2.3022162637991137e+01 3.0296450107148765e+01 1 0 0
9234 462 2 5.9999999999999998e-02 3.4398631754704070e+01 1.8653279633080981e+01 1.6208103560123497e+01 0 0 0
4661 234 1 -1.2000000000000000e-01 3.3636558141034058e+01 1.1698103308229626e+01 1.7637232077088104e+01 1 0 1
38 2 2 5.9999999999999998e-02 2.8142764640501124e+01 2.0832722066102839e+01 1.3222120371226847e+01 0 1 0
1630 82 2 5.9999999999999998e-02 2.9249333544422971e+01 1.0942032672768246e+01 2.4113455709014929e+01 1 1 0
9705 486 1 -1.2000000000000000e-01 1.2603977974699180e+01 2.4520779979997585e+01 1.1233798992603107e+01 0 0 1
7575 379 2 5.9999999999999998e-02 3.2422698126095398e+01 2.0211945703940675e+01 1.1692328519424956e+01 -1 0 1
737 37 2 5.9999999999999998e-02 2.2833371735663697e+01 1.2848302519835999e+01 1.8671671211479421e+01 0 1 0
7563 379 2 5.9999999999999998e-02 2.8367459365760869e+01 2.3453018068694725e+01 1.4266856689710666e+01 -1 0 1
4247 213 2 5.9999999999999998e-02 2.9591331739785240e+01 2.6281248858751866e+01 1.2802853407362409e+01 0 0 1
7573 379 1 -1.7999999999999999e-01 3.1541115558116623e+01 2.0824342777000311e+01 1.1935390486381838e+01 -1 0 1
7574 379 2 5.9999999999999998e-02 3.2569734093207295e+01 2.2590390632469745e+01 1.1858770216935110e+01 -1 0 1
7572 379 2 5.9999999999999998e-02 3.2599379191453465e+01 2.1986788014271376e+01 1.3367558388797278e+01 -1 0 1
7571 379 1 -1.2000000000000000e-01 3.1967542436156933e+01 2.2148828220571666e+01 1.2582092702166532e+01 -1 0 1
7569 379 2 5.9999999999999998e-02 2.9952188868809625e+01 2.3005380310497966e+01 1.2381456022266109e+01 -1 0 1
7568 379 1 -1.2000000000000000e-01 3.0802247677636309e+01 2.3014218791338514e+01 1.3100293875992012e+01 -1 0 1
7570 379 2 5.9999999999999998e-02 3.0999981653154848e+01 2.4077791187368359e+01 1.3250847040897916e+01 -1 0 1
7565 379 1 -1.2000000000000000e-01 3.0267607713427605e+01 2.2604411543537083e+01 1.4500986201639790e+01 -1 0 1
7533 377 1 -1.7999999999999999e-01 3.2912268830220057e+01 2.9605812923002770e+01 2.6329229426056937e+01 0 0 -1
7564 379 2 5.9999999999999998e-02 2.9563681008618289e+01 2.4433579786890601e+01 1.5058784076459489e+01 -1 0 1
3159 158 2 5.9999999999999998e-02 3.1968819909690556e+01 2.4447769267463514e+01 1.7688683923532512e+01 0 0 0
9233 462 1 -1.7999999999999999e-01 3.3890688646347385e+01 1.9704080126916878e+01 1.4417228660974285e+01 0 0 0
3142 158 1 -1.7999999999999999e-01 3.2272382639728335e+01 2.4759750144887114e+01 1.6724056536630684e+01 0 0 0
7576 379 2 5.9999999999999998e-02 3.1117841781654221e+01 2.0170390791425397e+01 1.2733122149013441e+01 -1 0 1
7567 379 2 5.9999999999999998e-02 2.9953950691233860e+01 2.1594422852886680e+01 1.4380880237843369e+01 -1 0 1
7566 379 2 5.9999999999999998e-02 3.1148902918264330e+01 2.2628023049824264e+01 1.5189027185936137e+01 -1 0 1
7561 379 1 -1.2000000000000000e-01 2.9158975105572214e+01 2.3461951698428340e+01 1.5020993317041270e+01 -1 0 1
3160 158 2 5.9999999999999998e-02 3.1335222728469290e+01 2.5044808866002953e+01 1.6197130888811614e+01 0 0 0
3141 158 1 -1.2000000000000000e-01 3.3164523474547451e+01 2.5955258609928272e+01 1.6803236824108279e+01 0 0 0
7578 379 2 5.9999999999999998e-02 2.8189190474838533e+01 2.1817007721020531e+01 1.6027498400721061e+01 -1 0 1
7580 379 2 5.9999999999999998e-02 2.7698969174284770e+01 2.3367687630725676e+01 1.6572771197630971e+01 -1 0 1
9237 462 2 5.9999999999999998e-02 3.3056879773537268e+01 2.0332427689601467e+01 1.4760190932056215e+01 0 0 0
7579 379 2 5.9999999999999998e-02 2.9334547486350189e+01 2.2945113826272234e+01 1.6944678782337110e+01 -1 0 1
7562 379 1 -1.7999999999999999e-01 2.8581227598252127e+01 2.2839300799844075e+01 1.6209720302112242e+01 -1 0 1
40 2 2 5.9999999999999998e-02 2.7188012112676866e+01 1.9632377844687355e+01 1.2232305473665777e+01 0 1 0
3158 158 2 5.9999999999999998e-02 3.2633381867816148e+01 2.3936941427351943e+01 1.6095207270431693e+01 0 0 0
3146 158 2 5.9999999999999998e-02 3.4680911063686665e+01 2.5009682784231583e+01 1.7971680825485141e+01 0 0 0
3145 158 1 -1.2000000000000000e-01 3.4651712301970754e+01 2.5698973451888254e+01 1.7127947341427188e+01 0 0 0
3143 158 2 5.9999999999999998e-02 3.3126138066414910e+01 2.6471248091067103e+01 1.5848005954135168e+01 0 0 0
2357 118 2 5.9999999999999998e-02 1.1034688855565328e+01 2.8099202041607693e+01 2.5857947646918426e+01 0 1 1
82 5 1 -1.7999999999999999e-01 1.7628549898997885e+01 2.2254599716790800e+01 1.0886688676912783e+01 1 0 1
3677 184 2 5.9999999999999998e-02 2.7984514497649023e+01 1.9544292087610458e+01 1.7493893937787348e+01 -1 0 0