LAMMPS Input Data File for a Single OPLS Hexane Molecule
 
          20  atoms
          19  bonds
          36  angles
          45  dihedrals
            
           2  atom types
           2  bond types
           3  angle types
           3  dihedral types
            
 -50.000000 50.000000 xlo xhi
 -50.000000 50.000000 ylo yhi
 -50.000000 50.000000 zlo zhi
 
Masses
 
  1 12.011000
  2  1.007900
 
Pair Coeffs
 
  1    0.066000    3.500000    
  2    0.030000    2.500000    

Bond Coeffs
 
  1  268.0000      1.529000
  2  340.0000      1.090000

Angle Coeffs
 
  1   33.000000  107.800000  
  2   37.500000  110.700000  
  3   58.350000  112.700000  
   
Dihedral Coeffs
 
  1    0.000000   0.000000   0.318000  0.000000
  2    0.000000   0.000000   0.366000  0.000000
  3    1.740000  -0.157000   0.279000  0.000000
  
Atoms
 
      1      1   1  -0.120   0.00100  -0.02800   0.04800   0   0   0
      2      1   1  -0.180  -0.53800  -1.32900   0.62200   0   0   0
      3      1   2   0.060  -0.40200   0.11400  -0.96100   0   0   0
      4      1   2   0.060  -0.35300   0.80900   0.66000   0   0   0
      5      1   1  -0.120   1.52900  -0.02800   0.00100   0   0   0
      6      1   2   0.060   1.92800  -0.17500   1.01200   0   0   0
      7      1   2   0.060   1.87800  -0.86900  -0.61000   0   0   0
      8      1   1  -0.120   2.06800   1.28200  -0.57700   0   0   0
      9      1   2   0.060   1.66900   1.42900  -1.58800   0   0   0
     10      1   2   0.060   1.71900   2.12400   0.03300   0   0   0
     11      1   1  -0.120   3.59500   1.28300  -0.62400   0   0   0
     12      1   2   0.060   3.94900   0.44500  -1.23700   0   0   0
     13      1   1  -0.180   4.13500   2.58300  -1.19800   0   0   0
     14      1   2   0.060   3.99900   1.14000   0.38500   0   0   0
     15      1   2   0.060   3.82500   3.43900  -0.58900   0   0   0
     16      1   2   0.060   5.22900   2.56200  -1.22200   0   0   0
     17      1   2   0.060   3.77500   2.74000  -2.22000   0   0   0
     18      1   2   0.060  -0.17800  -1.48500   1.64400   0   0   0
     19      1   2   0.060  -1.63200  -1.30700   0.64600   0   0   0
     20      1   2   0.060  -0.22800  -2.18400   0.01300   0   0   0
  
Bonds
 
     1   1      1      2
     2   2      1      3
     3   2      1      4
     4   1      1      5
     5   2      2     18
     6   2      2     19
     7   2      2     20
     8   2      5      6
     9   2      5      7
    10   1      5      8
    11   2      8      9
    12   2      8     10
    13   1      8     11
    14   2     11     12
    15   1     11     13
    16   2     11     14
    17   2     13     15
    18   2     13     16
    19   2     13     17
    
Angles
 
     1   3      1      5      8
     2   2      1      5      7
     3   2      1      5      6
     4   2      1      2     20
     5   2      1      2     19
     6   2      1      2     18
     7   3      2      1      5
     8   2      2      1      4
     9   2      2      1      3
    10   2      3      1      5
    11   1      3      1      4
    12   2      4      1      5
    13   3      5      8     11
    14   2      5      8     10
    15   2      5      8      9
    16   2      6      5      8
    17   1      6      5      7
    18   2      7      5      8
    19   2      8     11     14
    20   3      8     11     13
    21   2      8     11     12
    22   2      9      8     11
    23   1      9      8     10
    24   2     10      8     11
    25   2     11     13     17
    26   2     11     13     16
    27   2     11     13     15
    28   1     12     11     14
    29   2     12     11     13
    30   2     13     11     14
    31   1     15     13     17
    32   1     15     13     16
    33   1     16     13     17
    34   1     18      2     20
    35   1     18      2     19
    36   1     19      2     20

Dihedrals
 
     1   2      1      5      8      9
     2   2      1      5      8     10
     3   3      1      5      8     11
     4   2      2      1      5      6
     5   2      2      1      5      7
     6   3      2      1      5      8
     7   1      3      1      2     18
     8   1      3      1      2     19
     9   1      3      1      2     20
    10   1      3      1      5      6
    11   1      3      1      5      7
    12   2      3      1      5      8
    13   1      4      1      2     18
    14   1      4      1      2     19
    15   1      4      1      2     20
    16   1      4      1      5      6
    17   1      4      1      5      7
    18   2      4      1      5      8
    19   2      5      8     11     12
    20   3      5      8     11     13
    21   2      5      8     11     14
    22   2      5      1      2     18
    23   2      5      1      2     19
    24   2      5      1      2     20
    25   1      6      5      8      9
    26   1      6      5      8     10
    27   2      6      5      8     11
    28   1      7      5      8      9
    29   1      7      5      8     10
    30   2      7      5      8     11
    31   2      8     11     13     15
    32   2      8     11     13     16
    33   2      8     11     13     17
    34   1      9      8     11     12
    35   2      9      8     11     13
    36   1      9      8     11     14
    37   1     10      8     11     12
    38   2     10      8     11     13
    39   1     10      8     11     14
    40   1     12     11     13     15
    41   1     12     11     13     16
    42   1     12     11     13     17
    43   1     14     11     13     15
    44   1     14     11     13     16
    45   1     14     11     13     17
    
   
